# p  FACE_DATA 148
#  x  y  z  p
0 -13.9296 -10.946 1.27543e+06
0 -13.1812 -10.898 1.24621e+06
0 -12.4327 -10.8501 1.23514e+06
0 -11.6842 -10.8021 1.21944e+06
0 -10.9358 -10.7541 1.19908e+06
0 -10.1873 -10.7062 1.17843e+06
0 -9.43884 -10.6582 1.15907e+06
0 -8.69037 -10.6102 1.14258e+06
0 -7.94191 -10.5623 1.13032e+06
0 -7.19344 -10.5143 1.11915e+06
0 -6.44498 -10.4663 1.10743e+06
0 -5.69651 -10.4184 1.09428e+06
0 -4.94805 -10.3704 1.08138e+06
0 -4.19958 -10.3224 1.07432e+06
0 -3.45112 -10.2745 1.07365e+06
0 -2.70266 -10.2265 1.07347e+06
0 -1.95419 -10.1785 1.0698e+06
0 -1.20573 -10.1306 1.05925e+06
0 -0.457262 -10.0826 1.04211e+06
0 0.291202 -10.0346 1.02572e+06
0 1.03967 -9.98666 1.01336e+06
0 1.78813 -9.93869 1.00342e+06
0 2.5366 -9.89073 994292
0 3.28506 -9.84276 985886
0 4.03352 -9.79479 978655
0 4.78199 -9.74682 973040
0 5.53045 -9.69885 966900
0 6.27892 -9.65089 961129
0 7.02738 -9.60292 955813
0 7.77585 -9.55495 951426
0 8.52431 -9.50698 948365
0 9.27278 -9.45902 946685
0 10.0212 -9.41105 946468
0 10.7697 -9.36308 948680
0 11.5182 -9.31511 951978
0 12.2666 -9.26715 957565
0 13.0151 -9.21918 965218
0 13.7636 -9.17121 973987
0 14.512 -9.12324 985291
0 15.2605 -9.07527 997857
0 16.0239 -8.60883 993264
0 16.8022 -7.7239 1.02499e+06
0 17.5805 -6.83898 1.01329e+06
0 18.3589 -5.95405 1.01497e+06
0 19.1372 -5.06913 1.0247e+06
0 19.9155 -4.1842 1.03156e+06
0 20.2747 -3.27395 1.05438e+06
0 20.2148 -2.33837 1.05225e+06
0 20.1548 -1.40279 1.0348e+06
0 20.0948 -0.46721 1.01457e+06
0 20.0349 0.46837 996407
0 19.9749 1.40395 983369
0 19.915 2.33953 975677
0 19.855 3.27511 980042
0 19.795 4.21069 986097
0 19.7351 5.14627 984796
0 19.6751 6.08185 984598
0 19.6152 7.01743 984665
0 19.5552 7.95302 984722
0 19.4952 8.8886 985246
0 19.4353 9.82418 985567
0 19.3753 10.7598 985563
0 18.9029 11.6167 986177
0 18.018 12.395 986535
0 17.133 13.1734 986413
0 16.2481 13.9517 986323
0 15.3632 14.73 986367
0 14.4783 15.5084 986472
0 13.5933 16.2867 986505
0 12.7084 17.065 986578
0 11.8235 17.8434 986628
0 10.9386 18.6217 986708
0 10.0536 19.4 986702
0 9.16872 20.1783 987128
0 -10.9833 19.3044 989292
0 -10.4843 19.3363 989031
0 -9.98536 19.3683 988935
0 -9.48638 19.4003 988778
0 -8.98741 19.4323 988633
0 -8.48843 19.4642 988496
0 -7.98945 19.4962 988372
0 -7.49048 19.5282 988271
0 -6.9915 19.5602 988207
0 -6.49252 19.5922 988126
0 -5.99355 19.6241 987967
0 -5.49457 19.6561 987762
0 -4.9956 19.6881 987591
0 -4.49662 19.7201 987345
0 -3.99764 19.7521 986976
0 -3.49867 19.784 986686
0 -2.99969 19.816 986572
0 -2.50071 19.848 986503
0 -2.00174 19.88 986456
0 -1.50276 19.9119 986433
0 -1.00379 19.9439 986431
0 -0.504809 19.9759 986448
0 -0.00583264 20.0079 986487
0 0.493144 20.0399 986569
0 0.99212 20.0718 986680
0 1.4911 20.1038 986750
0 1.99007 20.1358 986804
0 2.48905 20.1678 987024
0 2.98803 20.1998 987153
0 3.487 20.2317 987193
0 3.98598 20.2637 987245
0 4.48495 20.2957 987333
0 4.98393 20.3277 987390
0 5.48291 20.3596 987441
0 5.98188 20.3916 987505
0 6.48086 20.4236 987454
0 6.97984 20.4556 987332
0 7.47881 20.4876 987298
0 7.97779 20.5195 987150
0 8.47676 20.5515 987086
0 -20.1836 9.11173 994192
0 -19.4053 9.99666 993394
0 -18.6269 10.8816 992515
0 -17.8486 11.7665 991722
0 -17.0703 12.6514 991067
0 -16.2919 13.5364 990567
0 -15.5136 14.4213 990300
0 -14.7353 15.3062 990042
0 -13.957 16.1911 989738
0 -13.1786 17.0761 989517
0 -12.4003 17.961 989609
0 -11.622 18.8459 989512
0 -19.6434 -5.83223 1.18528e+06
0 -19.7033 -4.89665 1.15465e+06
0 -19.7633 -3.96107 1.13367e+06
0 -19.8233 -3.02549 1.11444e+06
0 -19.8832 -2.08991 1.09751e+06
0 -19.9432 -1.15433 1.09166e+06
0 -20.0031 -0.218746 1.08485e+06
0 -20.0631 0.716835 1.08235e+06
0 -20.1231 1.65242 1.08139e+06
0 -20.183 2.588 1.07577e+06
0 -20.243 3.52358 1.02969e+06
0 -20.3029 4.45916 992903
0 -20.3629 5.39474 995798
0 -20.4229 6.33032 995403
0 -20.4828 7.2659 994942
0 -20.5428 8.20148 994838
0 -14.7463 -10.5808 1.27175e+06
0 -15.6312 -9.8025 1.23396e+06
0 -16.5162 -9.02417 1.21322e+06
0 -17.4011 -8.24584 1.20076e+06
0 -18.286 -7.46751 1.2052e+06
0 -19.1709 -6.68918 1.21913e+06
