# p  FACE_DATA 148
#  x  y  z  p
0 -15.0397 -9.4995 1.1282e+06
0 -14.2904 -9.53237 1.10897e+06
0 -13.5412 -9.56525 1.10456e+06
0 -12.7919 -9.59812 1.09452e+06
0 -12.0426 -9.63099 1.07784e+06
0 -11.2933 -9.66387 1.05874e+06
0 -10.5441 -9.69674 1.04e+06
0 -9.79477 -9.72962 1.02077e+06
0 -9.04549 -9.76249 1.00796e+06
0 -8.29621 -9.79537 1.00551e+06
0 -7.54693 -9.82824 1.00762e+06
0 -6.79766 -9.86112 1.01485e+06
0 -6.04838 -9.89399 1.0212e+06
0 -5.2991 -9.92687 1.02676e+06
0 -4.54982 -9.95974 1.03207e+06
0 -3.80054 -9.99261 1.03417e+06
0 -3.05126 -10.0255 1.04029e+06
0 -2.30198 -10.0584 1.04235e+06
0 -1.5527 -10.0912 1.03537e+06
0 -0.803422 -10.1241 1.0291e+06
0 -0.0541426 -10.157 1.02736e+06
0 0.695137 -10.1899 1.02651e+06
0 1.44442 -10.2227 1.02543e+06
0 2.19369 -10.2556 1.02381e+06
0 2.94297 -10.2885 1.0223e+06
0 3.69225 -10.3214 1.02106e+06
0 4.44153 -10.3542 1.02024e+06
0 5.19081 -10.3871 1.02059e+06
0 5.94009 -10.42 1.02337e+06
0 6.68937 -10.4529 1.02873e+06
0 7.43865 -10.4857 1.03603e+06
0 8.18793 -10.5186 1.03843e+06
0 8.93721 -10.5515 1.04309e+06
0 9.68649 -10.5844 1.05431e+06
0 10.4358 -10.6172 1.06664e+06
0 11.185 -10.6501 1.08074e+06
0 11.9343 -10.683 1.09504e+06
0 12.6836 -10.7159 1.10844e+06
0 13.4329 -10.7487 1.1204e+06
0 14.1822 -10.7816 1.13488e+06
0 14.9913 -10.4 1.13103e+06
0 15.8604 -9.60403 1.13726e+06
0 16.7295 -8.80803 1.12361e+06
0 17.5985 -8.01202 1.11244e+06
0 18.4676 -7.21602 1.10764e+06
0 19.3366 -6.42001 1.10257e+06
0 19.7917 -5.55371 1.10146e+06
0 19.8328 -4.61711 1.08934e+06
0 19.8739 -3.68051 1.06791e+06
0 19.915 -2.74391 1.04365e+06
0 19.9561 -1.80732 1.02038e+06
0 19.9972 -0.870717 1.00372e+06
0 20.0383 0.0658821 996282
0 20.0794 1.00248 995955
0 20.1205 1.93908 995584
0 20.1615 2.87568 995432
0 20.2026 3.81228 994578
0 20.2437 4.74888 994135
0 20.2848 5.68548 994444
0 20.3259 6.62207 993710
0 20.367 7.55867 992109
0 20.4081 8.49527 1.03966e+06
0 20.0306 9.3981 1.22471e+06
0 19.2346 10.2672 1.08054e+06
0 18.4386 11.1362 1.00426e+06
0 17.6426 12.0053 989077
0 16.8466 12.8743 987998
0 16.0506 13.7434 990975
0 15.2546 14.6125 992300
0 14.4586 15.4815 990458
0 13.6626 16.3506 990659
0 12.8666 17.2196 991061
0 12.0706 18.0887 991294
0 11.2746 18.9578 992041
0 -8.85443 20.258 990205
0 -8.35491 20.2361 990052
0 -7.85539 20.2142 989991
0 -7.35587 20.1922 990345
0 -6.85635 20.1703 990372
0 -6.35683 20.1484 990470
0 -5.85731 20.1265 990565
0 -5.35779 20.1046 990612
0 -4.85827 20.0827 990653
0 -4.35875 20.0607 990665
0 -3.85923 20.0388 990627
0 -3.35971 20.0169 990546
0 -2.8602 19.995 990268
0 -2.36068 19.9731 989631
0 -1.86116 19.9512 989753
0 -1.36164 19.9292 989788
0 -0.862117 19.9073 989810
0 -0.362598 19.8854 989846
0 0.136921 19.8635 989900
0 0.636441 19.8416 989928
0 1.13596 19.8197 989949
0 1.63548 19.7977 989959
0 2.135 19.7758 989970
0 2.63452 19.7539 989970
0 3.13404 19.732 989939
0 3.63356 19.7101 989895
0 4.13308 19.6882 989847
0 4.6326 19.6662 989881
0 5.13212 19.6443 989902
0 5.63164 19.6224 989921
0 6.13115 19.6005 989964
0 6.63067 19.5786 990069
0 7.13019 19.5567 990212
0 7.62971 19.5347 990369
0 8.12923 19.5128 990531
0 8.62875 19.4909 990658
0 9.12827 19.469 990615
0 9.62779 19.4471 990959
0 10.1273 19.4252 992049
0 10.6268 19.4032 991991
0 -19.0984 11.1149 975035
0 -18.2293 11.9109 978967
0 -17.3603 12.7069 985068
0 -16.4912 13.5029 988049
0 -15.6221 14.2989 989078
0 -14.7531 15.0949 989637
0 -13.884 15.8909 989715
0 -13.015 16.6869 989722
0 -12.1459 17.4829 989628
0 -11.2768 18.2789 989578
0 -10.4078 19.0749 989892
0 -9.53872 19.8709 990251
0 -20.1698 -3.8004 1.11589e+06
0 -20.1288 -2.8638 1.08217e+06
0 -20.0877 -1.9272 1.05191e+06
0 -20.0466 -0.990604 1.0258e+06
0 -20.0055 -0.0540054 1.01901e+06
0 -19.9644 0.882594 1.01758e+06
0 -19.9233 1.81919 1.01626e+06
0 -19.8822 2.75579 1.01137e+06
0 -19.8411 3.69239 1.0078e+06
0 -19.8 4.62899 1.00927e+06
0 -19.7589 5.56559 1.00859e+06
0 -19.7178 6.50219 1.00494e+06
0 -19.6767 7.43879 999795
0 -19.6356 8.37539 1.00007e+06
0 -19.5945 9.31198 1.0037e+06
0 -19.5535 10.2486 1.01929e+06
0 -15.8124 -9.04853 1.12396e+06
0 -16.6084 -8.17947 1.11483e+06
0 -17.4044 -7.31041 1.10758e+06
0 -18.2004 -6.44135 1.10465e+06
0 -18.9964 -5.57229 1.11812e+06
0 -19.7924 -4.70323 1.14331e+06
