# p  FACE_DATA 148
#  x  y  z  p
0 -15.9764 -7.41394 748402
0 -15.2361 -7.53419 746544
0 -14.4958 -7.65443 751704
0 -13.7555 -7.77468 751136
0 -13.0152 -7.89492 748521
0 -12.2749 -8.01516 761342
0 -11.5346 -8.13541 780280
0 -10.7943 -8.25565 789972
0 -10.054 -8.3759 803488
0 -9.31373 -8.49614 823552
0 -8.57343 -8.61638 844265
0 -7.83313 -8.73663 865272
0 -7.09284 -8.85687 883881
0 -6.35254 -8.97712 907218
0 -5.61224 -9.09736 936654
0 -4.87194 -9.2176 958295
0 -4.13164 -9.33785 970955
0 -3.39135 -9.45809 990832
0 -2.65105 -9.57834 1.01274e+06
0 -1.91075 -9.69858 1.04126e+06
0 -1.17045 -9.81883 1.07373e+06
0 -0.430153 -9.93907 1.09877e+06
0 0.310145 -10.0593 1.12784e+06
0 1.05044 -10.1796 1.15301e+06
0 1.79074 -10.2998 1.1671e+06
0 2.53104 -10.42 1.18011e+06
0 3.27134 -10.5403 1.20096e+06
0 4.01164 -10.6605 1.22633e+06
0 4.75193 -10.7808 1.25353e+06
0 5.49223 -10.901 1.27488e+06
0 6.23253 -11.0213 1.29508e+06
0 6.97283 -11.1415 1.31844e+06
0 7.71313 -11.2618 1.34206e+06
0 8.45342 -11.382 1.36397e+06
0 9.19372 -11.5022 1.38119e+06
0 9.93402 -11.6225 1.39751e+06
0 10.6743 -11.7427 1.41622e+06
0 11.4146 -11.863 1.43258e+06
0 12.1549 -11.9832 1.43607e+06
0 12.8952 -12.1035 1.45403e+06
0 13.7434 -11.8191 1.45142e+06
0 14.6996 -11.1302 1.39359e+06
0 15.6558 -10.4412 1.36094e+06
0 16.6119 -9.75227 1.33226e+06
0 17.5681 -9.06332 1.30716e+06
0 18.5242 -8.37437 1.27142e+06
0 19.0775 -7.56721 1.19414e+06
0 19.2278 -6.64183 1.1372e+06
0 19.3781 -5.71646 1.10197e+06
0 19.5284 -4.79109 1.08456e+06
0 19.6787 -3.86572 1.07681e+06
0 19.829 -2.94034 1.06502e+06
0 19.9793 -2.01497 1.03804e+06
0 20.1296 -1.0896 1.01236e+06
0 20.2799 -0.164225 1.00541e+06
0 20.4302 0.761147 1.00446e+06
0 20.5805 1.68652 1.00445e+06
0 20.7308 2.61189 1.00417e+06
0 20.8811 3.53727 1.0037e+06
0 21.0314 4.46264 1.00314e+06
0 21.1817 5.38801 1.00251e+06
0 21.332 6.31338 1.00177e+06
0 21.0627 7.25415 1.00081e+06
0 20.3738 8.21031 999794
0 19.6848 9.16647 998783
0 18.9959 10.1226 997814
0 18.3069 11.0788 996896
0 17.618 12.0349 995986
0 16.929 12.9911 995104
0 16.2401 13.9473 994254
0 15.5511 14.9034 993421
0 14.8622 15.8596 992599
0 14.1732 16.8157 991880
0 13.4843 17.7719 990594
0 -6.35471 21.4164 980085
0 -5.86118 21.3362 980657
0 -5.36765 21.2561 980739
0 -4.87411 21.1759 980843
0 -4.38058 21.0957 980987
0 -3.88705 21.0156 981123
0 -3.39352 20.9354 981250
0 -2.89999 20.8553 981433
0 -2.40645 20.7751 981616
0 -1.91292 20.6949 981800
0 -1.41939 20.6148 982012
0 -0.925857 20.5346 982223
0 -0.432325 20.4544 982419
0 0.061207 20.3743 982647
0 0.554739 20.2941 982901
0 1.04827 20.214 983133
0 1.5418 20.1338 983356
0 2.03534 20.0536 983589
0 2.52887 19.9735 983836
0 3.0224 19.8933 984087
0 3.51593 19.8131 984337
0 4.00946 19.733 984581
0 4.503 19.6528 984823
0 4.99653 19.5727 985067
0 5.49006 19.4925 985317
0 5.98359 19.4123 985575
0 6.47712 19.3322 985817
0 6.97066 19.252 986061
0 7.46419 19.1718 986570
0 7.95772 19.0917 986891
0 8.45125 19.0115 987125
0 8.94478 18.9314 987393
0 9.43832 18.8512 987692
0 9.93185 18.771 988012
0 10.4254 18.6909 988351
0 10.9189 18.6107 988697
0 11.4124 18.5305 989074
0 11.906 18.4504 989484
0 12.3995 18.3702 989755
0 12.893 18.29 990458
0 -17.5973 13.5336 978284
0 -16.6411 14.2225 976495
0 -15.685 14.9115 975451
0 -14.7288 15.6004 975405
0 -13.7727 16.2894 975813
0 -12.8165 16.9783 976435
0 -11.8603 17.6673 977093
0 -10.9042 18.3562 977591
0 -9.94803 19.0452 978035
0 -8.99187 19.7341 978594
0 -8.03571 20.4231 979120
0 -7.07956 21.112 980161
0 -20.4051 -1.15419 875863
0 -20.2548 -0.228813 902687
0 -20.1045 0.69656 912334
0 -19.9542 1.62193 920908
0 -19.8039 2.54731 931062
0 -19.6536 3.47268 945646
0 -19.5033 4.39805 969302
0 -19.353 5.32342 972551
0 -19.2027 6.2488 969820
0 -19.0524 7.17417 967623
0 -18.9021 8.09954 967174
0 -18.7517 9.02491 966530
0 -18.6014 9.95029 965740
0 -18.4511 10.8757 963338
0 -18.3008 11.801 958410
0 -18.1505 12.7264 975410
0 -16.691 -6.87574 743106
0 -17.38 -5.91958 803059
0 -18.0689 -4.96343 796289
0 -18.7579 -4.00727 802695
0 -19.4468 -3.05111 807091
0 -20.1358 -2.09495 825046
