# p  FACE_DATA 148
#  x  y  z  p
0 -15.8805 -7.86316 919706
0 -15.1387 -7.9734 909136
0 -14.3968 -8.08364 902487
0 -13.655 -8.19388 898062
0 -12.9131 -8.30412 892842
0 -12.1713 -8.41436 886376
0 -11.4294 -8.5246 881574
0 -10.6876 -8.63484 880054
0 -9.94571 -8.74508 881652
0 -9.20386 -8.85532 883569
0 -8.462 -8.96556 883690
0 -7.72015 -9.0758 884765
0 -6.9783 -9.18604 887818
0 -6.23644 -9.29628 892582
0 -5.49459 -9.40652 899073
0 -4.75273 -9.51676 908637
0 -4.01088 -9.627 920787
0 -3.26903 -9.73724 932957
0 -2.52717 -9.84748 944892
0 -1.78532 -9.95772 960683
0 -1.04346 -10.068 980947
0 -0.301611 -10.1782 1.00302e+06
0 0.440243 -10.2884 1.02603e+06
0 1.1821 -10.3987 1.04767e+06
0 1.92395 -10.5089 1.06421e+06
0 2.6658 -10.6192 1.0807e+06
0 3.40766 -10.7294 1.09425e+06
0 4.14951 -10.8396 1.10827e+06
0 4.89137 -10.9499 1.12313e+06
0 5.63322 -11.0601 1.13838e+06
0 6.37507 -11.1704 1.15391e+06
0 7.11693 -11.2806 1.16858e+06
0 7.85878 -11.3908 1.18506e+06
0 8.60064 -11.5011 1.203e+06
0 9.34249 -11.6113 1.21999e+06
0 10.0843 -11.7216 1.23623e+06
0 10.8262 -11.8318 1.25548e+06
0 11.5681 -11.942 1.26722e+06
0 12.3099 -12.0523 1.27713e+06
0 13.0518 -12.1625 1.29837e+06
0 13.8961 -11.8667 1.29547e+06
0 14.8428 -11.1649 1.26992e+06
0 15.7896 -10.4632 1.24172e+06
0 16.7364 -9.76136 1.21156e+06
0 17.6832 -9.05957 1.18006e+06
0 18.6299 -8.35777 1.15433e+06
0 19.1722 -7.54322 1.14371e+06
0 19.31 -6.6159 1.13093e+06
0 19.4478 -5.68858 1.10259e+06
0 19.5856 -4.76127 1.06833e+06
0 19.7234 -3.83395 1.04275e+06
0 19.8612 -2.90663 1.0393e+06
0 19.999 -1.97931 1.0371e+06
0 20.1368 -1.052 1.02969e+06
0 20.2746 -0.124679 1.01992e+06
0 20.4124 0.802638 1.0113e+06
0 20.5502 1.72996 1.00524e+06
0 20.688 2.65727 1.00273e+06
0 20.8258 3.58459 1.00145e+06
0 20.9636 4.51191 1.00075e+06
0 21.1014 5.43922 1.00014e+06
0 21.2392 6.36654 997350
0 20.9572 7.30359 995823
0 20.2554 8.25036 994612
0 19.5536 9.19713 993735
0 18.8518 10.1439 992907
0 18.15 11.0907 992090
0 17.4482 12.0374 991132
0 16.7465 12.9842 989639
0 16.0447 13.931 988698
0 15.3429 14.8778 988143
0 14.6411 15.8245 987641
0 13.9393 16.7713 987064
0 13.2375 17.7181 986439
0 -6.6489 21.0944 981879
0 -6.15433 21.0209 982005
0 -5.65976 20.9474 982051
0 -5.16519 20.874 982109
0 -4.67062 20.8005 982172
0 -4.17605 20.727 982253
0 -3.68148 20.6535 982358
0 -3.18691 20.58 982492
0 -2.69234 20.5065 982624
0 -2.19777 20.433 982699
0 -1.7032 20.3595 982731
0 -1.20863 20.286 982731
0 -0.714065 20.2125 982701
0 -0.219496 20.139 982686
0 0.275074 20.0655 982630
0 0.769643 19.992 982585
0 1.26421 19.9185 982580
0 1.75878 19.845 982634
0 2.25335 19.7716 982718
0 2.74792 19.6981 982916
0 3.24249 19.6246 983214
0 3.73706 19.5511 983533
0 4.23163 19.4776 983946
0 4.7262 19.4041 984391
0 5.22077 19.3306 984573
0 5.71534 19.2571 984582
0 6.2099 19.1836 984501
0 6.70447 19.1101 984428
0 7.19904 19.0366 984400
0 7.69361 18.9631 984438
0 8.18818 18.8896 984541
0 8.68275 18.8161 984668
0 9.17732 18.7427 984812
0 9.67189 18.6692 984957
0 10.1665 18.5957 985095
0 10.661 18.5222 985353
0 11.1556 18.4487 985662
0 11.6502 18.3752 985851
0 12.1447 18.3017 986054
0 12.6393 18.2282 986379
0 -17.784 13.0606 979629
0 -16.8373 13.7624 979825
0 -15.8905 14.4641 979983
0 -14.9437 15.1659 980136
0 -13.997 15.8677 980311
0 -13.0502 16.5695 980470
0 -12.1034 17.2713 980597
0 -11.1566 17.9731 980731
0 -10.2099 18.6749 980933
0 -9.26311 19.3767 981241
0 -8.31634 20.0785 981592
0 -7.36957 20.7803 981965
0 -20.3933 -1.66376 997716
0 -20.2555 -0.736439 988190
0 -20.1177 0.190879 978947
0 -19.9799 1.1182 971052
0 -19.8421 2.04551 971926
0 -19.7043 2.97283 970590
0 -19.5665 3.90015 974863
0 -19.4287 4.82747 977187
0 -19.2909 5.75478 977953
0 -19.1531 6.6821 978166
0 -19.0153 7.60942 978376
0 -18.8775 8.53673 978598
0 -18.7397 9.46405 978815
0 -18.6019 10.3914 979013
0 -18.4641 11.3187 979217
0 -18.3263 12.246 979410
0 -16.6024 -7.33465 914627
0 -17.3042 -6.38788 916511
0 -18.006 -5.44111 920031
0 -18.7077 -4.49434 931013
0 -19.4095 -3.54757 959034
0 -20.1113 -2.6008 999508
