# p  FACE_DATA 148
#  x  y  z  p
0 -15.8305 -7.99209 937555
0 -15.0878 -8.09669 915032
0 -14.3452 -8.20129 898478
0 -13.6025 -8.30588 895457
0 -12.8598 -8.41048 892517
0 -12.1172 -8.51508 889400
0 -11.3745 -8.61968 887547
0 -10.6318 -8.72427 885934
0 -9.88915 -8.82887 883011
0 -9.14648 -8.93347 882184
0 -8.40381 -9.03806 884569
0 -7.66114 -9.14266 887844
0 -6.91847 -9.24726 890545
0 -6.1758 -9.35186 894276
0 -5.43312 -9.45645 900839
0 -4.69045 -9.56105 910427
0 -3.94778 -9.66565 922393
0 -3.20511 -9.77024 936279
0 -2.46244 -9.87484 953013
0 -1.71977 -9.97944 967241
0 -0.977102 -10.084 979494
0 -0.234431 -10.1886 1.00125e+06
0 0.508239 -10.2932 1.02634e+06
0 1.25091 -10.3978 1.04989e+06
0 1.99358 -10.5024 1.07044e+06
0 2.73625 -10.607 1.08577e+06
0 3.47892 -10.7116 1.10188e+06
0 4.22159 -10.8162 1.11862e+06
0 4.96426 -10.9208 1.13668e+06
0 5.70693 -11.0254 1.15727e+06
0 6.4496 -11.13 1.17958e+06
0 7.19227 -11.2346 1.19633e+06
0 7.93494 -11.3392 1.21142e+06
0 8.67761 -11.4438 1.22819e+06
0 9.42028 -11.5484 1.24496e+06
0 10.163 -11.653 1.26342e+06
0 10.9056 -11.7576 1.28095e+06
0 11.6483 -11.8622 1.29625e+06
0 12.391 -11.9668 1.30677e+06
0 13.1336 -12.0714 1.32307e+06
0 13.9757 -11.7692 1.32023e+06
0 14.9171 -11.0602 1.28972e+06
0 15.8585 -10.3513 1.24548e+06
0 16.7999 -9.64228 1.20543e+06
0 17.7413 -8.93331 1.17233e+06
0 18.6827 -8.22434 1.14361e+06
0 19.2188 -7.40569 1.12471e+06
0 19.3495 -6.47735 1.07839e+06
0 19.4803 -5.54901 1.0487e+06
0 19.611 -4.62068 1.03966e+06
0 19.7418 -3.69234 1.03133e+06
0 19.8725 -2.764 1.02567e+06
0 20.0033 -1.83566 1.02248e+06
0 20.134 -0.907323 1.02097e+06
0 20.2648 0.0210153 1.01909e+06
0 20.3955 0.949353 1.01608e+06
0 20.5263 1.87769 1.007e+06
0 20.657 2.80603 1.0029e+06
0 20.7878 3.73437 1.0014e+06
0 20.9185 4.66271 1.00046e+06
0 21.0492 5.59104 990306
0 21.18 6.51938 990645
0 20.8909 7.45426 990705
0 20.1819 8.39566 989563
0 19.4729 9.33707 988497
0 18.764 10.2785 987608
0 18.055 11.2199 986869
0 17.346 12.1613 986271
0 16.6371 13.1027 985791
0 15.9281 14.0441 985420
0 15.2191 14.9855 985105
0 14.5101 15.9269 984864
0 13.8012 16.8683 984697
0 13.0922 17.8097 984589
0 -6.81927 21.0348 979789
0 -6.32415 20.9651 980303
0 -5.82904 20.8954 980453
0 -5.33393 20.8257 980449
0 -4.83881 20.7559 980513
0 -4.3437 20.6862 980689
0 -3.84858 20.6165 980889
0 -3.35347 20.5467 981000
0 -2.85836 20.477 981036
0 -2.36324 20.4073 981070
0 -1.86813 20.3375 981087
0 -1.37302 20.2678 981130
0 -0.877902 20.1981 981192
0 -0.382789 20.1283 981264
0 0.112325 20.0586 981334
0 0.607438 19.9889 981360
0 1.10255 19.9191 981379
0 1.59767 19.8494 981392
0 2.09278 19.7797 981397
0 2.58789 19.7099 981391
0 3.08301 19.6402 981371
0 3.57812 19.5705 981342
0 4.07323 19.5008 981296
0 4.56835 19.431 981278
0 5.06346 19.3613 981294
0 5.55857 19.2916 981307
0 6.05369 19.2218 981358
0 6.5488 19.1521 981416
0 7.04392 19.0824 981497
0 7.53903 19.0126 981620
0 8.03414 18.9429 981787
0 8.52926 18.8732 981988
0 9.02437 18.8034 982252
0 9.51948 18.7337 982568
0 10.0146 18.664 982935
0 10.5097 18.5942 983321
0 11.0048 18.5245 983679
0 11.4999 18.4548 983967
0 11.9951 18.3851 984191
0 12.4902 18.3153 984480
0 -17.893 12.9166 978581
0 -16.9516 13.6255 978503
0 -16.0102 14.3345 978329
0 -15.0688 15.0435 978199
0 -14.1274 15.7524 978204
0 -13.186 16.4614 978385
0 -12.2446 17.1704 978427
0 -11.3032 17.8793 978419
0 -10.3618 18.5883 978885
0 -9.42034 19.2973 979337
0 -8.47894 20.0063 979248
0 -7.53753 20.7152 980088
0 -20.3903 -1.82717 1.00873e+06
0 -20.2595 -0.898835 992090
0 -20.1288 0.0295028 982577
0 -19.9981 0.957841 979486
0 -19.8673 1.88618 974980
0 -19.7366 2.81452 960867
0 -19.6058 3.74286 960681
0 -19.4751 4.67119 971132
0 -19.3443 5.59953 978561
0 -19.2136 6.52787 979261
0 -19.0828 7.45621 978763
0 -18.9521 8.38455 978178
0 -18.8213 9.31288 977608
0 -18.6906 10.2412 977789
0 -18.5598 11.1696 977998
0 -18.4291 12.0979 978336
0 -16.5563 -7.46909 932434
0 -17.2653 -6.52768 926046
0 -17.9743 -5.58627 923093
0 -18.6832 -4.64486 930292
0 -19.3922 -3.70346 960954
0 -20.1012 -2.76205 1.01459e+06
