# p  FACE_DATA 148
#  x  y  z  p
0 -15.926 -7.62815 962882
0 -15.185 -7.74437 961441
0 -14.4441 -7.86058 961016
0 -13.7032 -7.9768 960087
0 -12.9622 -8.09301 960323
0 -12.2213 -8.20923 959145
0 -11.4803 -8.32544 955079
0 -10.7394 -8.44166 952041
0 -9.99845 -8.55787 955257
0 -9.25751 -8.67409 963826
0 -8.51657 -8.7903 973193
0 -7.77562 -8.90652 981797
0 -7.03468 -9.02273 988933
0 -6.29374 -9.13895 995032
0 -5.5528 -9.25516 1.00119e+06
0 -4.81186 -9.37138 1.00762e+06
0 -4.07092 -9.48759 1.01334e+06
0 -3.32998 -9.6038 1.0185e+06
0 -2.58904 -9.72002 1.02492e+06
0 -1.84809 -9.83623 1.03364e+06
0 -1.10715 -9.95245 1.04339e+06
0 -0.366211 -10.0687 1.05388e+06
0 0.37473 -10.1849 1.06571e+06
0 1.11567 -10.3011 1.07508e+06
0 1.85661 -10.4173 1.08666e+06
0 2.59755 -10.5335 1.09787e+06
0 3.3385 -10.6497 1.10422e+06
0 4.07944 -10.766 1.11233e+06
0 4.82038 -10.8822 1.12224e+06
0 5.56132 -10.9984 1.13254e+06
0 6.30226 -11.1146 1.14331e+06
0 7.0432 -11.2308 1.15487e+06
0 7.78414 -11.347 1.16643e+06
0 8.52509 -11.4632 1.17803e+06
0 9.26603 -11.5795 1.1902e+06
0 10.007 -11.6957 1.20213e+06
0 10.7479 -11.8119 1.21312e+06
0 11.4889 -11.9281 1.22279e+06
0 12.2298 -12.0443 1.22765e+06
0 12.9707 -12.1605 1.24003e+06
0 13.8174 -11.8716 1.23834e+06
0 14.7698 -11.1774 1.22162e+06
0 15.7222 -10.4833 1.20358e+06
0 16.6746 -9.78914 1.18505e+06
0 17.627 -9.095 1.1701e+06
0 18.5794 -8.40086 1.15547e+06
0 19.1282 -7.5907 1.13917e+06
0 19.2735 -6.66453 1.10951e+06
0 19.4187 -5.73835 1.07791e+06
0 19.564 -4.81217 1.0551e+06
0 19.7093 -3.886 1.04066e+06
0 19.8546 -2.95982 1.03108e+06
0 19.9998 -2.03364 1.02426e+06
0 20.1451 -1.10747 1.02163e+06
0 20.2904 -0.181289 1.0233e+06
0 20.4356 0.744888 1.03054e+06
0 20.5809 1.67106 1.0354e+06
0 20.7262 2.59724 1.03203e+06
0 20.8714 3.52342 1.02065e+06
0 21.0167 4.44959 1.00544e+06
0 21.162 5.37577 997275
0 21.3072 6.30195 997499
0 21.0328 7.24123 994984
0 20.3387 8.19363 994869
0 19.6445 9.14603 994802
0 18.9504 10.0984 994523
0 18.2562 11.0508 994133
0 17.5621 12.0032 993113
0 16.868 12.9556 992119
0 16.1738 13.908 991324
0 15.4797 14.8604 990918
0 14.7855 15.8128 991727
0 14.0914 16.7652 994209
0 13.3973 17.7176 993583
0 -6.46127 21.2541 994083
0 -5.96731 21.1766 994183
0 -5.47335 21.0992 994229
0 -4.97939 21.0217 994175
0 -4.48543 20.9442 994099
0 -3.99147 20.8667 994007
0 -3.49751 20.7892 993979
0 -3.00355 20.7118 993936
0 -2.50958 20.6343 993918
0 -2.01562 20.5568 993919
0 -1.52166 20.4793 993920
0 -1.0277 20.4019 993955
0 -0.533741 20.3244 993969
0 -0.0397803 20.2469 993941
0 0.454181 20.1694 993895
0 0.948142 20.092 993841
0 1.4421 20.0145 993777
0 1.93606 19.937 993696
0 2.43002 19.8595 993583
0 2.92399 19.7821 993453
0 3.41795 19.7046 993298
0 3.91191 19.6271 993120
0 4.40587 19.5496 992929
0 4.89983 19.4721 992732
0 5.39379 19.3947 992551
0 5.88775 19.3172 992399
0 6.38171 19.2397 992197
0 6.87567 19.1622 991886
0 7.36963 19.0848 991658
0 7.86359 19.0073 991693
0 8.35756 18.9298 991593
0 8.85152 18.8523 991459
0 9.34548 18.7749 991101
0 9.83944 18.6974 989755
0 10.3334 18.6199 988747
0 10.8274 18.5424 993266
0 11.3213 18.465 994546
0 11.8153 18.3875 993248
0 12.3092 18.31 993248
0 12.8032 18.2325 993487
0 -17.6608 13.3102 991482
0 -16.7084 14.0044 991997
0 -15.756 14.6985 992397
0 -14.8036 15.3926 992594
0 -13.8512 16.0868 992743
0 -12.8988 16.7809 992777
0 -11.9464 17.4751 992492
0 -10.994 18.1692 992394
0 -10.0416 18.8634 992592
0 -9.08924 19.5575 993093
0 -8.13685 20.2516 993733
0 -7.18445 20.9458 994119
0 -20.3887 -1.39258 1.00904e+06
0 -20.2434 -0.466408 1.01481e+06
0 -20.0981 0.459769 1.0215e+06
0 -19.9529 1.38595 1.03338e+06
0 -19.8076 2.31212 1.04617e+06
0 -19.6623 3.2383 1.05792e+06
0 -19.5171 4.16448 1.08619e+06
0 -19.3718 5.09065 1.05879e+06
0 -19.2265 6.01683 1.0162e+06
0 -19.0812 6.94301 994934
0 -18.936 7.86918 992454
0 -18.7907 8.79536 992672
0 -18.6454 9.72154 994234
0 -18.5002 10.6477 998230
0 -18.3549 11.5739 994132
0 -18.2096 12.5001 991645
0 -16.6435 -7.09385 962339
0 -17.3377 -6.14145 964867
0 -18.0318 -5.18906 971997
0 -18.7259 -4.23666 979484
0 -19.4201 -3.28427 987954
0 -20.1142 -2.33187 998401
