# p  FACE_DATA 148
#  x  y  z  p
0 -16.3433 -6.84247 746311
0 -15.6089 -6.99464 752501
0 -14.8745 -7.14681 752071
0 -14.1401 -7.29898 761450
0 -13.4057 -7.45115 769727
0 -12.6713 -7.60332 780110
0 -11.9369 -7.75549 792977
0 -11.2025 -7.90766 814354
0 -10.4681 -8.05983 832548
0 -9.73368 -8.212 837358
0 -8.99928 -8.36417 848813
0 -8.26488 -8.51634 870359
0 -7.53048 -8.66851 895192
0 -6.79608 -8.82068 924224
0 -6.06168 -8.97285 947637
0 -5.32728 -9.12502 959007
0 -4.59288 -9.27719 974201
0 -3.85848 -9.42936 996647
0 -3.12408 -9.58153 1.02274e+06
0 -2.38967 -9.7337 1.05031e+06
0 -1.65527 -9.88587 1.07868e+06
0 -0.920873 -10.038 1.10766e+06
0 -0.186473 -10.1902 1.13813e+06
0 0.547928 -10.3424 1.17125e+06
0 1.28233 -10.4946 1.20692e+06
0 2.01673 -10.6467 1.23611e+06
0 2.75113 -10.7989 1.25416e+06
0 3.48553 -10.9511 1.27135e+06
0 4.21993 -11.1032 1.29586e+06
0 4.95433 -11.2554 1.32207e+06
0 5.68873 -11.4076 1.33989e+06
0 6.42313 -11.5597 1.35769e+06
0 7.15753 -11.7119 1.38112e+06
0 7.89193 -11.8641 1.40603e+06
0 8.62633 -12.0163 1.431e+06
0 9.36074 -12.1684 1.45368e+06
0 10.0951 -12.3206 1.47475e+06
0 10.8295 -12.4728 1.4921e+06
0 11.5639 -12.6249 1.49994e+06
0 12.2983 -12.7771 1.52024e+06
0 13.1581 -12.5297 1.51788e+06
0 14.1432 -11.8828 1.43769e+06
0 15.1282 -11.2359 1.42312e+06
0 16.1133 -10.589 1.38977e+06
0 17.0984 -9.94204 1.36077e+06
0 18.0835 -9.29512 1.32862e+06
0 18.6711 -8.51265 1.25942e+06
0 18.8613 -7.59465 1.20417e+06
0 19.0515 -6.67665 1.15384e+06
0 19.2418 -5.75865 1.11189e+06
0 19.432 -4.84065 1.0841e+06
0 19.6222 -3.92265 1.06552e+06
0 19.8124 -3.00465 1.04212e+06
0 20.0026 -2.08665 1.01916e+06
0 20.1928 -1.16865 1.00066e+06
0 20.383 -0.250648 998492
0 20.5732 0.667352 998148
0 20.7635 1.58535 997722
0 20.9537 2.50335 997324
0 21.1439 3.42135 996769
0 21.3341 4.33936 996161
0 21.5243 5.25736 995453
0 21.296 6.2089 994528
0 20.649 7.19397 993828
0 20.0021 8.17905 993176
0 19.3552 9.16413 992535
0 18.7083 10.1492 991931
0 18.0613 11.1343 991357
0 17.4144 12.1194 990816
0 16.7675 13.1044 990313
0 16.1206 14.0895 989752
0 15.4736 15.0746 989188
0 14.8267 16.0597 988745
0 14.1798 17.0448 987644
0 -5.48287 21.5444 981065
0 -4.99327 21.443 981506
0 -4.50367 21.3416 981667
0 -4.01407 21.2401 981866
0 -3.52447 21.1387 982068
0 -3.03487 21.0372 982219
0 -2.54527 20.9358 982369
0 -2.05567 20.8343 982513
0 -1.56607 20.7329 982647
0 -1.07647 20.6314 982772
0 -0.586869 20.53 982891
0 -0.0972689 20.4285 983004
0 0.392331 20.3271 983112
0 0.881932 20.2256 983257
0 1.37153 20.1242 983368
0 1.86113 20.0227 983466
0 2.35073 19.9213 983568
0 2.84033 19.8199 983675
0 3.32993 19.7184 983784
0 3.81953 19.617 983900
0 4.30913 19.5155 984018
0 4.79874 19.4141 984139
0 5.28834 19.3126 984260
0 5.77794 19.2112 984377
0 6.26754 19.1097 984486
0 6.75714 19.0083 984585
0 7.24674 18.9068 984566
0 7.73634 18.8054 984787
0 8.22594 18.7039 985049
0 8.71554 18.6025 985163
0 9.20514 18.501 985271
0 9.69474 18.3996 985403
0 10.1843 18.2982 985555
0 10.6739 18.1967 985766
0 11.1635 18.0953 986025
0 11.6531 17.9938 986293
0 12.1427 17.8924 986560
0 12.6323 17.7909 986827
0 13.1219 17.6895 986992
0 13.6115 17.588 987507
0 -17.0561 14.1556 975661
0 -16.071 14.8025 976248
0 -15.0859 15.4494 976767
0 -14.1008 16.0963 977542
0 -13.1158 16.7433 977696
0 -12.1307 17.3902 977993
0 -11.1456 18.0371 978542
0 -10.1605 18.684 979114
0 -9.17545 19.3309 979556
0 -8.19037 19.9779 979981
0 -7.20529 20.6248 980244
0 -6.22021 21.2717 981117
0 -20.4969 -0.39691 867950
0 -20.3067 0.52109 896296
0 -20.1165 1.43909 943468
0 -19.9263 2.35709 967047
0 -19.7361 3.27509 965861
0 -19.5459 4.19309 966517
0 -19.3556 5.11109 967293
0 -19.1654 6.02909 968003
0 -18.9752 6.9471 968608
0 -18.785 7.8651 969131
0 -18.5948 8.7831 969849
0 -18.4046 9.7011 970714
0 -18.2144 10.6191 971410
0 -18.0241 11.5371 972104
0 -17.8339 12.4551 973871
0 -17.6437 13.3731 974721
0 -17.0339 -6.27384 740581
0 -17.6809 -5.28876 793580
0 -18.3278 -4.30369 807349
0 -18.9747 -3.31861 831192
0 -19.6216 -2.33353 858555
0 -20.2686 -1.34845 864449
