# p  FACE_DATA 148
#  x  y  z  p
0 -16.0899 -7.26141 905105
0 -15.3519 -7.39498 897579
0 -14.6139 -7.52855 892203
0 -13.8759 -7.66212 890813
0 -13.1379 -7.7957 890751
0 -12.3999 -7.92927 890090
0 -11.6619 -8.06284 890431
0 -10.9238 -8.19641 893060
0 -10.1858 -8.32999 898058
0 -9.44783 -8.46356 904730
0 -8.70982 -8.59713 913036
0 -7.97181 -8.7307 921475
0 -7.2338 -8.86428 928365
0 -6.49579 -8.99785 935708
0 -5.75778 -9.13142 942693
0 -5.01977 -9.26499 952880
0 -4.28176 -9.39857 968632
0 -3.54375 -9.53214 987301
0 -2.80574 -9.66571 1.00896e+06
0 -2.06773 -9.79929 1.035e+06
0 -1.32972 -9.93286 1.06015e+06
0 -0.591713 -10.0664 1.07608e+06
0 0.146297 -10.2 1.08694e+06
0 0.884306 -10.3336 1.10014e+06
0 1.62232 -10.4671 1.11628e+06
0 2.36033 -10.6007 1.13298e+06
0 3.09834 -10.7343 1.15001e+06
0 3.83635 -10.8679 1.16772e+06
0 4.57436 -11.0014 1.18568e+06
0 5.31236 -11.135 1.20321e+06
0 6.05037 -11.2686 1.2204e+06
0 6.78838 -11.4022 1.23734e+06
0 7.52639 -11.5357 1.25381e+06
0 8.2644 -11.6693 1.26947e+06
0 9.00241 -11.8029 1.28415e+06
0 9.74042 -11.9364 1.29781e+06
0 10.4784 -12.07 1.31049e+06
0 11.2164 -12.2036 1.32111e+06
0 11.9545 -12.3372 1.32564e+06
0 12.6925 -12.4707 1.34501e+06
0 13.5457 -12.2017 1.34235e+06
0 14.5141 -11.5301 1.31037e+06
0 15.4825 -10.8585 1.28545e+06
0 16.451 -10.1869 1.26173e+06
0 17.4194 -9.51534 1.23838e+06
0 18.3878 -8.84374 1.21533e+06
0 18.9555 -8.04669 1.19008e+06
0 19.1225 -7.12417 1.16768e+06
0 19.2894 -6.20166 1.1466e+06
0 19.4564 -5.27915 1.12444e+06
0 19.6234 -4.35664 1.10396e+06
0 19.7903 -3.43413 1.08638e+06
0 19.9573 -2.51161 1.07099e+06
0 20.1243 -1.5891 1.05687e+06
0 20.2912 -0.666589 1.04483e+06
0 20.4582 0.255923 1.03283e+06
0 20.6252 1.17844 1.01918e+06
0 20.7921 2.10095 1.00247e+06
0 20.9591 3.02346 999735
0 21.1261 3.94597 999710
0 21.293 4.86848 998391
0 21.46 5.791 997703
0 21.2077 6.73646 996705
0 20.5361 7.70489 995294
0 19.8645 8.67331 994207
0 19.1929 9.64174 993515
0 18.5213 10.6102 992954
0 17.8497 11.5786 992492
0 17.1781 12.547 992119
0 16.5065 13.5154 991760
0 15.8349 14.4839 991332
0 15.1633 15.4523 990858
0 14.4917 16.4207 990393
0 13.8201 17.3891 989903
0 -5.94995 21.3908 985433
0 -5.45794 21.3017 985590
0 -4.96594 21.2127 985681
0 -4.47393 21.1236 985777
0 -3.98192 21.0346 985900
0 -3.48992 20.9455 986009
0 -2.99791 20.8565 986013
0 -2.50591 20.7674 985905
0 -2.0139 20.6784 985901
0 -1.52189 20.5893 985877
0 -1.02989 20.5003 985857
0 -0.537879 20.4112 985835
0 -0.0458727 20.3222 985830
0 0.446134 20.2331 985830
0 0.93814 20.1441 985837
0 1.43015 20.055 985866
0 1.92215 19.966 985915
0 2.41416 19.8769 985985
0 2.90617 19.7879 986069
0 3.39817 19.6988 986092
0 3.89018 19.6098 986198
0 4.38219 19.5207 986400
0 4.87419 19.4317 986467
0 5.3662 19.3426 986544
0 5.85821 19.2536 986678
0 6.35021 19.1646 986854
0 6.84222 19.0755 987030
0 7.33422 18.9865 987217
0 7.82623 18.8974 987431
0 8.31824 18.8084 987663
0 8.81024 18.7193 987885
0 9.30225 18.6303 988067
0 9.79426 18.5412 988209
0 10.2863 18.4522 988258
0 10.7783 18.3631 988802
0 11.2703 18.2741 989267
0 11.7623 18.185 989321
0 12.2543 18.096 989412
0 12.7463 18.0069 989565
0 13.2383 17.9179 989844
0 -17.3328 13.7119 983072
0 -16.3644 14.3835 983528
0 -15.396 15.0551 983773
0 -14.4276 15.7267 983833
0 -13.4591 16.3983 983834
0 -12.4907 17.0699 983844
0 -11.5223 17.7415 983965
0 -10.5539 18.4131 984120
0 -9.58544 19.0847 984344
0 -8.61702 19.7563 984701
0 -7.64859 20.4279 985054
0 -6.68017 21.0995 985519
0 -20.405 -0.922815 980811
0 -20.2381 -0.000302798 978556
0 -20.0711 0.922209 979613
0 -19.9041 1.84472 980084
0 -19.7372 2.76723 983275
0 -19.5702 3.68975 983281
0 -19.4032 4.61226 981526
0 -19.2363 5.53477 980733
0 -19.0693 6.45728 980665
0 -18.9023 7.37979 980225
0 -18.7354 8.30231 980448
0 -18.5684 9.22482 982917
0 -18.4014 10.1473 985570
0 -18.2345 11.0698 984260
0 -18.0675 11.9924 982580
0 -17.9005 12.9149 982438
0 -16.7947 -6.71041 899548
0 -17.4663 -5.74198 908919
0 -18.1379 -4.77356 916880
0 -18.8095 -3.80513 932139
0 -19.4811 -2.83671 954574
0 -20.1527 -1.86828 973775
