# p  FACE_DATA 148
#  x  y  z  p
0 -15.5253 -8.42688 863097
0 -14.7788 -8.49871 855377
0 -14.0322 -8.57053 848330
0 -13.2857 -8.64236 846812
0 -12.5391 -8.71419 845396
0 -11.7926 -8.78601 848096
0 -11.046 -8.85784 853660
0 -10.2995 -8.92966 855803
0 -9.55292 -9.00149 859710
0 -8.80637 -9.07332 874370
0 -8.05981 -9.14514 886534
0 -7.31326 -9.21697 896576
0 -6.56671 -9.28879 907943
0 -5.82016 -9.36062 920447
0 -5.0736 -9.43244 933224
0 -4.32705 -9.50427 946571
0 -3.5805 -9.5761 959991
0 -2.83395 -9.64792 976920
0 -2.08739 -9.71975 990904
0 -1.34084 -9.79157 1.00215e+06
0 -0.594287 -9.8634 1.02044e+06
0 0.152266 -9.93523 1.04121e+06
0 0.898819 -10.0071 1.06218e+06
0 1.64537 -10.0789 1.0844e+06
0 2.39192 -10.1507 1.10174e+06
0 3.13848 -10.2225 1.10905e+06
0 3.88503 -10.2944 1.11359e+06
0 4.63158 -10.3662 1.12418e+06
0 5.37814 -10.438 1.14145e+06
0 6.12469 -10.5098 1.1634e+06
0 6.87124 -10.5817 1.18591e+06
0 7.61779 -10.6535 1.20721e+06
0 8.36435 -10.7253 1.23051e+06
0 9.1109 -10.7971 1.25564e+06
0 9.85745 -10.869 1.27839e+06
0 10.604 -10.9408 1.29318e+06
0 11.3506 -11.0126 1.31113e+06
0 12.0971 -11.0844 1.32964e+06
0 12.8437 -11.1563 1.3459e+06
0 13.5902 -11.2281 1.37344e+06
0 14.4181 -10.8892 1.37048e+06
0 15.3275 -10.1395 1.33428e+06
0 16.2368 -9.38976 1.31414e+06
0 17.1461 -8.64006 1.30221e+06
0 18.0554 -7.89037 1.29843e+06
0 18.9647 -7.14067 1.29363e+06
0 19.4642 -6.29923 1.24805e+06
0 19.554 -5.36604 1.20947e+06
0 19.6438 -4.43285 1.18224e+06
0 19.7336 -3.49965 1.15857e+06
0 19.8234 -2.56646 1.13406e+06
0 19.9132 -1.63327 1.11184e+06
0 20.0029 -0.700081 1.09381e+06
0 20.0927 0.23311 1.07886e+06
0 20.1825 1.1663 1.06001e+06
0 20.2723 2.09949 1.05752e+06
0 20.3621 3.03268 1.05697e+06
0 20.4518 3.96587 1.05674e+06
0 20.5416 4.89906 1.05753e+06
0 20.6314 5.83226 1.05934e+06
0 20.7212 6.76545 1.04868e+06
0 20.811 7.69864 1.01447e+06
0 20.481 8.61989 999660
0 19.7313 9.5292 997022
0 18.9816 10.4385 994762
0 18.2319 11.3478 992747
0 17.4822 12.2571 991021
0 16.7325 13.1664 989442
0 15.9828 14.0757 988228
0 15.2331 14.9851 987678
0 14.4834 15.8944 987478
0 13.7337 16.8037 987535
0 12.9841 17.713 987842
0 12.2344 18.6223 987315
0 -7.79972 20.9684 980224
0 -7.30202 20.9205 980820
0 -6.80431 20.8726 980837
0 -6.30661 20.8247 980848
0 -5.80891 20.7768 980888
0 -5.31121 20.7289 980875
0 -4.81351 20.6811 980856
0 -4.3158 20.6332 980863
0 -3.8181 20.5853 980870
0 -3.3204 20.5374 980854
0 -2.8227 20.4895 980916
0 -2.325 20.4416 980988
0 -1.8273 20.3938 981061
0 -1.32959 20.3459 981155
0 -0.831891 20.298 981276
0 -0.334189 20.2501 981439
0 0.163512 20.2022 981626
0 0.661214 20.1543 981791
0 1.15892 20.1065 981911
0 1.65662 20.0586 981991
0 2.15432 20.0107 982073
0 2.65202 19.9628 982193
0 3.14972 19.9149 982325
0 3.64743 19.867 982420
0 4.14513 19.8191 982485
0 4.64283 19.7713 982413
0 5.14053 19.7234 982332
0 5.63823 19.6755 983197
0 6.13593 19.6276 983618
0 6.63364 19.5797 983819
0 7.13134 19.5318 984039
0 7.62904 19.484 984253
0 8.12674 19.4361 984493
0 8.62444 19.3882 984775
0 9.12215 19.3403 985092
0 9.61985 19.2924 985444
0 10.1175 19.2445 985813
0 10.6153 19.1967 986158
0 11.113 19.1488 986908
0 11.6107 19.1009 987261
0 -18.5056 12.3708 976472
0 -17.5963 13.1205 976414
0 -16.687 13.8702 976165
0 -15.7777 14.6199 976474
0 -14.8684 15.3696 976883
0 -13.9591 16.1193 977284
0 -13.0498 16.869 977698
0 -12.1405 17.6187 978067
0 -11.2312 18.3684 978448
0 -10.3218 19.1181 978993
0 -9.41253 19.8678 979504
0 -8.50322 20.6175 980370
0 -20.3519 -2.46852 921659
0 -20.2621 -1.53533 920751
0 -20.1723 -0.602136 918336
0 -20.0826 0.331055 917177
0 -19.9928 1.26425 916900
0 -19.903 2.19744 916364
0 -19.8132 3.13063 915599
0 -19.7234 4.06382 917620
0 -19.6336 4.99701 940910
0 -19.5439 5.9302 967929
0 -19.4541 6.86339 976928
0 -19.3643 7.79658 974829
0 -19.2745 8.72977 974399
0 -19.1847 9.66297 974597
0 -19.095 10.5962 975221
0 -19.0052 11.5293 975849
0 -16.2735 -7.93632 858178
0 -17.0232 -7.02701 899613
0 -17.7729 -6.1177 886330
0 -18.5226 -5.20839 886041
0 -19.2723 -4.29908 894564
0 -20.022 -3.38977 904553
