# p  FACE_DATA 148
#  x  y  z  p
0 -16.2409 -6.97956 900123
0 -15.5048 -7.12322 896385
0 -14.7687 -7.26687 893898
0 -14.0326 -7.41053 893862
0 -13.2965 -7.55418 895870
0 -12.5604 -7.69784 898541
0 -11.8242 -7.84149 901517
0 -11.0881 -7.98515 904772
0 -10.352 -8.12881 910502
0 -9.61591 -8.27246 919785
0 -8.87979 -8.41612 931009
0 -8.14368 -8.55977 943191
0 -7.40757 -8.70343 956927
0 -6.67145 -8.84708 967835
0 -5.93534 -8.99074 976109
0 -5.19923 -9.13439 991361
0 -4.46311 -9.27805 1.00953e+06
0 -3.727 -9.4217 1.02707e+06
0 -2.99089 -9.56536 1.04408e+06
0 -2.25477 -9.70902 1.06277e+06
0 -1.51866 -9.85267 1.08177e+06
0 -0.782545 -9.99633 1.10276e+06
0 -0.0464313 -10.14 1.12698e+06
0 0.689682 -10.2836 1.14838e+06
0 1.4258 -10.4273 1.16127e+06
0 2.16191 -10.5709 1.17447e+06
0 2.89802 -10.7146 1.19182e+06
0 3.63414 -10.8583 1.21169e+06
0 4.37025 -11.0019 1.23225e+06
0 5.10636 -11.1456 1.25306e+06
0 5.84248 -11.2892 1.27357e+06
0 6.57859 -11.4329 1.29344e+06
0 7.3147 -11.5765 1.31259e+06
0 8.05082 -11.7202 1.33092e+06
0 8.78693 -11.8638 1.34794e+06
0 9.52304 -12.0075 1.36558e+06
0 10.2592 -12.1512 1.37837e+06
0 10.9953 -12.2948 1.39273e+06
0 11.7314 -12.4385 1.39719e+06
0 12.4675 -12.5821 1.41478e+06
0 13.3243 -12.3248 1.41218e+06
0 14.3018 -11.6665 1.37588e+06
0 15.2794 -11.0082 1.34867e+06
0 16.2569 -10.35 1.32658e+06
0 17.2344 -9.69166 1.30604e+06
0 18.2119 -9.03338 1.28364e+06
0 18.7905 -8.24416 1.24953e+06
0 18.97 -7.32402 1.21895e+06
0 19.1496 -6.40388 1.18917e+06
0 19.3292 -5.48374 1.14671e+06
0 19.5087 -4.56359 1.11727e+06
0 19.6883 -3.64345 1.10226e+06
0 19.8679 -2.72331 1.09182e+06
0 20.0475 -1.80317 1.07729e+06
0 20.227 -0.883027 1.06171e+06
0 20.4066 0.0371144 1.0465e+06
0 20.5862 0.957256 1.03084e+06
0 20.7657 1.8774 1.01746e+06
0 20.9453 2.79754 1.00357e+06
0 21.1249 3.71768 1.00109e+06
0 21.3044 4.63782 1.00088e+06
0 21.484 5.55797 1.00057e+06
0 21.2446 6.5068 999878
0 20.5864 7.48432 997843
0 19.9281 8.46184 995387
0 19.2698 9.43936 994573
0 18.6115 10.4169 994335
0 17.9532 11.3944 994035
0 17.2949 12.3719 993251
0 16.6366 13.3494 992806
0 15.9784 14.327 992407
0 15.3201 15.3045 991904
0 14.6618 16.282 991310
0 14.0035 17.2595 990756
0 -5.70997 21.5312 987839
0 -5.21923 21.4354 988270
0 -4.72849 21.3397 988451
0 -4.23774 21.2439 988605
0 -3.747 21.1481 988752
0 -3.25626 21.0524 988886
0 -2.76552 20.9566 988952
0 -2.27477 20.8608 988959
0 -1.78403 20.7651 988992
0 -1.29329 20.6693 988913
0 -0.802547 20.5735 988714
0 -0.311805 20.4777 988432
0 0.178937 20.382 988124
0 0.66968 20.2862 987840
0 1.16042 20.1904 987629
0 1.65116 20.0947 987510
0 2.14191 19.9989 987432
0 2.63265 19.9031 987412
0 3.12339 19.8074 987444
0 3.61413 19.7116 987488
0 4.10488 19.6158 987493
0 4.59562 19.52 987558
0 5.08636 19.4243 988148
0 5.5771 19.3285 988481
0 6.06785 19.2327 988829
0 6.55859 19.137 989275
0 7.04933 19.0412 989700
0 7.54007 18.9454 989959
0 8.03081 18.8496 990007
0 8.52156 18.7539 989918
0 9.0123 18.6581 989784
0 9.50304 18.5623 989698
0 9.99378 18.4666 989674
0 10.4845 18.3708 989686
0 10.9753 18.275 989578
0 11.466 18.1793 989670
0 11.9568 18.0835 990107
0 12.4475 17.9877 990256
0 12.9382 17.8919 990404
0 13.429 17.7962 990695
0 -17.1968 14.0088 984831
0 -16.2193 14.6671 985089
0 -15.2418 15.3254 985422
0 -14.2643 15.9837 985626
0 -13.2868 16.642 985765
0 -12.3092 17.3002 985896
0 -11.3317 17.9585 986073
0 -10.3542 18.6168 986313
0 -9.37667 19.2751 986573
0 -8.39914 19.9334 986804
0 -7.42162 20.5917 987014
0 -6.4441 21.25 988021
0 -20.4689 -0.582536 975012
0 -20.2894 0.337606 991021
0 -20.1098 1.25775 995915
0 -19.9302 2.17789 996646
0 -19.7506 3.09803 997077
0 -19.5711 4.01817 997457
0 -19.3915 4.93832 997804
0 -19.2119 5.85846 998326
0 -19.0324 6.7786 998523
0 -18.8528 7.69874 984594
0 -18.6732 8.61888 983069
0 -18.4937 9.53902 982093
0 -18.3141 10.4592 982234
0 -18.1345 11.3793 982731
0 -17.9549 12.2995 983940
0 -17.7754 13.2196 984875
0 -16.9381 -6.41897 894469
0 -17.5964 -5.44145 907820
0 -18.2547 -4.46393 917001
0 -18.913 -3.48641 928456
0 -19.5713 -2.50889 947259
0 -20.2296 -1.53137 962534
