# p  FACE_DATA 148
#  x  y  z  p
0 -12.1082 -13.0554 1.36177e+06
0 -11.3766 -12.8901 1.35468e+06
0 -10.6451 -12.7248 1.3529e+06
0 -9.91353 -12.5595 1.34633e+06
0 -9.18197 -12.3942 1.33742e+06
0 -8.45042 -12.2289 1.32708e+06
0 -7.71886 -12.0636 1.31574e+06
0 -6.98731 -11.8983 1.3031e+06
0 -6.25575 -11.733 1.28986e+06
0 -5.52419 -11.5677 1.27583e+06
0 -4.79264 -11.4024 1.26063e+06
0 -4.06108 -11.2371 1.24504e+06
0 -3.32953 -11.0717 1.22925e+06
0 -2.59797 -10.9064 1.21314e+06
0 -1.86642 -10.7411 1.19705e+06
0 -1.13486 -10.5758 1.18098e+06
0 -0.403304 -10.4105 1.165e+06
0 0.328252 -10.2452 1.14905e+06
0 1.05981 -10.0799 1.13315e+06
0 1.79136 -9.9146 1.11735e+06
0 2.52292 -9.7493 1.10173e+06
0 3.25448 -9.58399 1.08605e+06
0 3.98603 -9.41868 1.06999e+06
0 4.71759 -9.25338 1.05439e+06
0 5.44914 -9.08807 1.03938e+06
0 6.1807 -8.92276 1.02471e+06
0 6.91225 -8.75746 1.01051e+06
0 7.64381 -8.59215 996868
0 8.37537 -8.42685 983781
0 9.10692 -8.26154 971194
0 9.83848 -8.09623 959254
0 10.57 -7.93093 948091
0 11.3016 -7.76562 937768
0 12.0331 -7.60031 928370
0 12.7647 -7.43501 920136
0 13.4963 -7.2697 913288
0 14.2278 -7.10439 908264
0 14.9594 -6.93909 904739
0 15.6909 -6.77378 902514
0 16.4225 -6.60847 902422
0 17.1028 -6.02756 896564
0 17.732 -5.03105 928572
0 18.3612 -4.03454 911445
0 18.9903 -3.03802 922359
0 19.6195 -2.04151 928638
0 20.2487 -1.045 941860
0 20.4599 -0.0895183 966204
0 20.2533 0.824926 989347
0 20.0467 1.73937 1.00348e+06
0 19.84 2.65382 1.00249e+06
0 19.6334 3.56826 1.00241e+06
0 19.4268 4.48271 1.00248e+06
0 19.2201 5.39715 1.00251e+06
0 19.0135 6.31159 1.00251e+06
0 18.8069 7.22604 1.00249e+06
0 18.6002 8.14048 1.00244e+06
0 18.3936 9.05493 1.00241e+06
0 18.187 9.96937 1.00239e+06
0 17.9803 10.8838 1.00235e+06
0 17.7737 11.7983 1.00233e+06
0 17.5671 12.7127 1.00236e+06
0 17.3604 13.6272 1.00244e+06
0 16.7589 14.399 1.00275e+06
0 15.7624 15.0281 1.00284e+06
0 14.7658 15.6573 1.00286e+06
0 13.7693 16.2865 1.00285e+06
0 12.7728 16.9156 1.00281e+06
0 11.7763 17.5448 1.00274e+06
0 10.7798 18.174 1.00266e+06
0 9.78327 18.8031 1.00259e+06
0 8.78676 19.4323 1.00253e+06
0 7.79025 20.0615 1.00251e+06
0 6.79373 20.6906 1.00243e+06
0 5.79722 21.3198 1.00272e+06
0 -13.9653 17.2813 1.00214e+06
0 -13.4776 17.3915 1.00195e+06
0 -12.9899 17.5017 1.00194e+06
0 -12.5022 17.6119 1.00186e+06
0 -12.0145 17.7221 1.0018e+06
0 -11.5268 17.8323 1.00177e+06
0 -11.0391 17.9425 1.00174e+06
0 -10.5514 18.0527 1.00174e+06
0 -10.0637 18.1629 1.00175e+06
0 -9.576 18.2731 1.00177e+06
0 -9.0883 18.3833 1.00181e+06
0 -8.6006 18.4935 1.00185e+06
0 -8.11289 18.6037 1.0019e+06
0 -7.62519 18.714 1.00195e+06
0 -7.13749 18.8242 1.00201e+06
0 -6.64978 18.9344 1.00208e+06
0 -6.16208 19.0446 1.00214e+06
0 -5.67437 19.1548 1.00221e+06
0 -5.18667 19.265 1.00228e+06
0 -4.69897 19.3752 1.00235e+06
0 -4.21126 19.4854 1.00242e+06
0 -3.72356 19.5956 1.00249e+06
0 -3.23586 19.7058 1.00256e+06
0 -2.74815 19.816 1.00263e+06
0 -2.26045 19.9262 1.00269e+06
0 -1.77274 20.0364 1.00276e+06
0 -1.28504 20.1466 1.00282e+06
0 -0.797336 20.2568 1.00288e+06
0 -0.309632 20.367 1.00293e+06
0 0.178072 20.4772 1.00298e+06
0 0.665775 20.5874 1.00301e+06
0 1.15348 20.6976 1.00304e+06
0 1.64118 20.8078 1.00306e+06
0 2.12889 20.918 1.00306e+06
0 2.61659 21.0282 1.00305e+06
0 3.10429 21.1384 1.00303e+06
0 3.592 21.2487 1.00299e+06
0 4.0797 21.3589 1.00293e+06
0 4.56741 21.4691 1.00286e+06
0 5.05511 21.5793 1.00269e+06
0 -21.4446 5.76629 1.00437e+06
0 -20.8154 6.7628 1.00402e+06
0 -20.1863 7.75932 1.00377e+06
0 -19.5571 8.75583 1.0036e+06
0 -18.9279 9.75234 1.00345e+06
0 -18.2988 10.7489 1.00332e+06
0 -17.6696 11.7454 1.00319e+06
0 -17.0404 12.7419 1.00308e+06
0 -16.4113 13.7384 1.00294e+06
0 -15.7821 14.7349 1.00278e+06
0 -15.1529 15.7314 1.00265e+06
0 -14.5238 16.7279 1.0022e+06
0 -18.5564 -8.90586 1.20048e+06
0 -18.763 -7.99142 1.16748e+06
0 -18.9696 -7.07697 1.13896e+06
0 -19.1763 -6.16253 1.11553e+06
0 -19.3829 -5.24808 1.09356e+06
0 -19.5895 -4.33364 1.07281e+06
0 -19.7962 -3.41919 1.05188e+06
0 -20.0028 -2.50475 1.0263e+06
0 -20.2094 -1.5903 1.00857e+06
0 -20.4161 -0.675858 1.00627e+06
0 -20.6227 0.238587 1.00612e+06
0 -20.8293 1.15303 1.00589e+06
0 -21.036 2.06748 1.00567e+06
0 -21.2426 2.98192 1.00544e+06
0 -21.4492 3.89637 1.00519e+06
0 -21.6559 4.81081 1.00489e+06
0 -12.9722 -12.8235 1.35943e+06
0 -13.9687 -12.1943 1.31007e+06
0 -14.9653 -11.5652 1.29408e+06
0 -15.9618 -10.936 1.27915e+06
0 -16.9583 -10.3068 1.26367e+06
0 -17.9548 -9.67767 1.23827e+06
