# p  FACE_DATA 148
#  x  y  z  p
0 -12.9709 -12.1288 1.38612e+06
0 -12.2299 -12.0133 1.36235e+06
0 -11.4888 -11.8978 1.35004e+06
0 -10.7478 -11.7823 1.33441e+06
0 -10.0067 -11.6667 1.31406e+06
0 -9.26569 -11.5512 1.29671e+06
0 -8.52464 -11.4357 1.28307e+06
0 -7.78359 -11.3202 1.27481e+06
0 -7.04255 -11.2047 1.26475e+06
0 -6.3015 -11.0891 1.24635e+06
0 -5.56045 -10.9736 1.2291e+06
0 -4.8194 -10.8581 1.21259e+06
0 -4.07835 -10.7426 1.19269e+06
0 -3.3373 -10.627 1.17154e+06
0 -2.59625 -10.5115 1.15303e+06
0 -1.8552 -10.396 1.13696e+06
0 -1.11415 -10.2805 1.12357e+06
0 -0.373098 -10.165 1.10883e+06
0 0.367952 -10.0494 1.08677e+06
0 1.109 -9.93391 1.05977e+06
0 1.85005 -9.81839 1.03617e+06
0 2.5911 -9.70287 1.0185e+06
0 3.33215 -9.58735 1.00398e+06
0 4.0732 -9.47182 989426
0 4.81425 -9.3563 974197
0 5.5553 -9.24078 958844
0 6.29635 -9.12526 944076
0 7.0374 -9.00974 929432
0 7.77845 -8.89421 916094
0 8.5195 -8.77869 903705
0 9.26055 -8.66317 892297
0 10.0016 -8.54765 881912
0 10.7426 -8.43213 872627
0 11.4837 -8.3166 864809
0 12.2247 -8.20108 858379
0 12.9658 -8.08556 853624
0 13.7068 -7.97004 851019
0 14.4479 -7.85452 850924
0 15.1889 -7.73899 853163
0 15.93 -7.62347 857828
0 16.648 -7.08984 852467
0 17.3431 -6.13809 892302
0 18.0381 -5.18634 890421
0 18.7331 -4.2346 899655
0 19.4282 -3.28285 910402
0 20.1232 -2.33111 922375
0 20.3985 -1.39208 961780
0 20.2541 -0.465764 952320
0 20.1097 0.460548 945847
0 19.9653 1.38686 948895
0 19.8209 2.31317 953304
0 19.6765 3.23948 959188
0 19.5321 4.1658 967154
0 19.3877 5.09211 973275
0 19.2433 6.01842 976603
0 19.0989 6.94473 976861
0 18.9545 7.87104 977361
0 18.8101 8.79736 977845
0 18.6657 9.72367 978414
0 18.5213 10.65 978616
0 18.3769 11.5763 977053
0 18.2325 12.5026 981507
0 17.6844 13.3133 982316
0 16.7326 14.0083 982319
0 15.7809 14.7033 982179
0 14.8292 15.3984 982083
0 13.8774 16.0934 982075
0 12.9257 16.7884 982312
0 11.9739 17.4835 982555
0 11.0222 18.1785 982983
0 10.0704 18.8735 983562
0 9.11868 19.5686 984208
0 8.16693 20.2636 984805
0 7.21518 20.9586 985563
0 -12.775 18.2641 988382
0 -12.281 18.3411 987839
0 -11.7869 18.4181 987735
0 -11.2929 18.4951 987752
0 -10.7989 18.5721 987741
0 -10.3048 18.6491 987708
0 -9.8108 18.7261 987670
0 -9.31677 18.8032 987420
0 -8.82273 18.8802 985273
0 -8.3287 18.9572 986609
0 -7.83467 19.0342 986748
0 -7.34064 19.1112 986708
0 -6.8466 19.1882 986758
0 -6.35257 19.2652 986754
0 -5.85854 19.3423 986724
0 -5.3645 19.4193 986662
0 -4.87047 19.4963 986572
0 -4.37644 19.5733 986444
0 -3.8824 19.6503 986300
0 -3.38837 19.7273 986124
0 -2.89434 19.8043 985923
0 -2.4003 19.8814 985667
0 -1.90627 19.9584 985308
0 -1.41224 20.0354 984905
0 -0.918204 20.1124 984597
0 -0.424171 20.1894 984493
0 0.0698618 20.2664 984648
0 0.563895 20.3434 984973
0 1.05793 20.4205 985360
0 1.55196 20.4975 985712
0 2.04599 20.5745 986049
0 2.54003 20.6515 986325
0 3.03406 20.7285 986503
0 3.52809 20.8055 986624
0 4.02213 20.8826 986672
0 4.51616 20.9596 986628
0 5.01019 21.0366 986459
0 5.50423 21.1136 986001
0 5.99826 21.1906 985782
0 6.49229 21.2676 985529
0 -21.0149 7.28046 987962
0 -20.3198 8.23221 989877
0 -19.6248 9.18395 989885
0 -18.9298 10.1357 990677
0 -18.2347 11.0874 990996
0 -17.5397 12.0392 991055
0 -16.8447 12.9909 990783
0 -16.1497 13.9427 990301
0 -15.4546 14.8944 989778
0 -14.7596 15.8462 989294
0 -14.0646 16.7979 989000
0 -13.3695 17.7497 988617
0 -19.1241 -7.55325 1.21445e+06
0 -19.2685 -6.62694 1.17457e+06
0 -19.413 -5.70063 1.16395e+06
0 -19.5574 -4.77431 1.15865e+06
0 -19.7018 -3.848 1.12003e+06
0 -19.8462 -2.92169 1.07955e+06
0 -19.9906 -1.99538 1.04082e+06
0 -20.135 -1.06907 1.01219e+06
0 -20.2794 -0.142753 1.00761e+06
0 -20.4238 0.783559 1.00539e+06
0 -20.5682 1.70987 1.00343e+06
0 -20.7126 2.63618 1.00204e+06
0 -20.857 3.5625 1.00133e+06
0 -21.0014 4.48881 1.00006e+06
0 -21.1458 5.41512 999787
0 -21.2902 6.34143 1.00115e+06
0 -13.8173 -11.8391 1.38319e+06
0 -14.7691 -11.144 1.33136e+06
0 -15.7208 -10.449 1.30729e+06
0 -16.6726 -9.75398 1.29048e+06
0 -17.6243 -9.05895 1.28142e+06
0 -18.5761 -8.36392 1.26827e+06
