# p  FACE_DATA 148
#  x  y  z  p
0 -15.6131 -8.37487 863855
0 -14.8672 -8.4534 854791
0 -14.1213 -8.53194 846958
0 -13.3754 -8.61048 841528
0 -12.6295 -8.68902 838534
0 -11.8837 -8.76756 838149
0 -11.1378 -8.84609 844143
0 -10.3919 -8.92463 849001
0 -9.64604 -9.00317 850335
0 -8.90016 -9.08171 854123
0 -8.15429 -9.16024 860563
0 -7.40841 -9.23878 872733
0 -6.66253 -9.31732 890048
0 -5.91666 -9.39586 898784
0 -5.17078 -9.4744 905760
0 -4.4249 -9.55293 918859
0 -3.67903 -9.63147 937325
0 -2.93315 -9.71001 954524
0 -2.18727 -9.78855 972665
0 -1.4414 -9.86709 992632
0 -0.69552 -9.94562 1.01444e+06
0 0.0503563 -10.0242 1.03869e+06
0 0.796233 -10.1027 1.06389e+06
0 1.54211 -10.1812 1.07974e+06
0 2.28799 -10.2598 1.0829e+06
0 3.03386 -10.3383 1.08702e+06
0 3.77974 -10.4169 1.0976e+06
0 4.52562 -10.4954 1.10949e+06
0 5.27149 -10.5739 1.11854e+06
0 6.01737 -10.6525 1.1289e+06
0 6.76325 -10.731 1.14832e+06
0 7.50912 -10.8095 1.17e+06
0 8.255 -10.8881 1.19667e+06
0 9.00087 -10.9666 1.22331e+06
0 9.74675 -11.0452 1.24798e+06
0 10.4926 -11.1237 1.27431e+06
0 11.2385 -11.2022 1.29934e+06
0 11.9844 -11.2808 1.32019e+06
0 12.7303 -11.3593 1.3403e+06
0 13.4761 -11.4378 1.37231e+06
0 14.3071 -11.1064 1.36924e+06
0 15.2231 -10.3649 1.31684e+06
0 16.1391 -9.62339 1.28817e+06
0 17.0551 -8.8819 1.27022e+06
0 17.9711 -8.14042 1.26294e+06
0 18.8872 -7.39893 1.25483e+06
0 19.3943 -6.56201 1.19796e+06
0 19.4924 -5.62967 1.14696e+06
0 19.5906 -4.69732 1.10258e+06
0 19.6888 -3.76498 1.07083e+06
0 19.7869 -2.83263 1.04052e+06
0 19.8851 -1.90029 1.0152e+06
0 19.9833 -0.96794 999923
0 20.0815 -0.0355939 999134
0 20.1796 0.896752 999017
0 20.2778 1.8291 998782
0 20.376 2.76144 998457
0 20.4741 3.69379 998102
0 20.5723 4.62613 997753
0 20.6705 5.55848 997460
0 20.7687 6.49083 997146
0 20.8668 7.42317 996648
0 20.5452 8.34735 995895
0 19.8037 9.26337 995249
0 19.0622 10.1794 994511
0 18.3207 11.0954 993754
0 17.5792 12.0114 993034
0 16.8377 12.9274 992382
0 16.0963 13.8434 991811
0 15.3548 14.7595 991319
0 14.6133 15.6755 990893
0 13.8718 16.5915 990594
0 13.1303 17.5075 990378
0 12.3888 18.4235 989236
0 -7.62334 20.9497 982217
0 -7.12609 20.8973 982622
0 -6.62884 20.845 982671
0 -6.13159 20.7926 982677
0 -5.63434 20.7403 982733
0 -5.13708 20.6879 982822
0 -4.63983 20.6355 982903
0 -4.14258 20.5832 982979
0 -3.64533 20.5308 983069
0 -3.14808 20.4785 983171
0 -2.65083 20.4261 983279
0 -2.15358 20.3738 983384
0 -1.65633 20.3214 983485
0 -1.15908 20.269 983593
0 -0.661826 20.2167 983757
0 -0.164575 20.1643 983920
0 0.332677 20.112 984058
0 0.829928 20.0596 984191
0 1.32718 20.0072 984335
0 1.82443 19.9549 984489
0 2.32168 19.9025 984647
0 2.81893 19.8502 984813
0 3.31618 19.7978 984987
0 3.81343 19.7455 985165
0 4.31068 19.6931 985347
0 4.80794 19.6407 985520
0 5.30519 19.5884 985691
0 5.80244 19.536 985849
0 6.29969 19.4837 985914
0 6.79694 19.4313 986253
0 7.29419 19.3789 986706
0 7.79144 19.3266 986946
0 8.28869 19.2742 987083
0 8.78594 19.2219 987248
0 9.28319 19.1695 987449
0 9.78045 19.1171 987723
0 10.2777 19.0648 988108
0 10.7749 19.0124 988508
0 11.2722 18.9601 988808
0 11.7695 18.9077 989092
0 -18.4061 12.4488 978589
0 -17.4901 13.1903 978750
0 -16.5741 13.9317 978855
0 -15.6581 14.6732 979154
0 -14.7421 15.4147 979313
0 -13.8261 16.1562 979509
0 -12.9101 16.8977 979809
0 -11.994 17.6392 980296
0 -11.078 18.3807 980769
0 -10.162 19.1222 981179
0 -9.24599 19.8636 981574
0 -8.32997 20.6051 982301
0 -20.3858 -2.37333 911706
0 -20.2877 -1.44098 945602
0 -20.1895 -0.508637 970536
0 -20.0913 0.423708 982382
0 -19.9931 1.35605 982455
0 -19.895 2.2884 976025
0 -19.7968 3.22075 973134
0 -19.6986 4.15309 973159
0 -19.6004 5.08544 973060
0 -19.5023 6.01778 973032
0 -19.4041 6.95013 973104
0 -19.3059 7.88247 973743
0 -19.2078 8.81482 974608
0 -19.1096 9.74716 975539
0 -19.0114 10.6795 976420
0 -18.9132 11.6119 977581
0 -16.3567 -7.87759 858845
0 -17.0982 -6.96157 905210
0 -17.8397 -6.04556 896585
0 -18.5812 -5.12954 896791
0 -19.3227 -4.21353 893006
0 -20.0642 -3.29751 896565
