# p  FACE_DATA 148
#  x  y  z  p
0 -16.1055 -7.32861 896966
0 -15.3662 -7.4545 892860
0 -14.6268 -7.5804 892331
0 -13.8874 -7.70629 897308
0 -13.1481 -7.83218 901330
0 -12.4087 -7.95808 906072
0 -11.6694 -8.08397 912729
0 -10.93 -8.20987 920547
0 -10.1907 -8.33576 929422
0 -9.4513 -8.46166 938653
0 -8.71194 -8.58755 947748
0 -7.97258 -8.71344 956830
0 -7.23322 -8.83934 965892
0 -6.49386 -8.96523 974523
0 -5.75451 -9.09113 984026
0 -5.01515 -9.21702 996180
0 -4.27579 -9.34291 1.01078e+06
0 -3.53643 -9.46881 1.0272e+06
0 -2.79707 -9.5947 1.04237e+06
0 -2.05771 -9.7206 1.05298e+06
0 -1.31836 -9.84649 1.06266e+06
0 -0.578998 -9.97238 1.07333e+06
0 0.160361 -10.0983 1.08563e+06
0 0.899719 -10.2242 1.09793e+06
0 1.63908 -10.3501 1.11071e+06
0 2.37844 -10.476 1.1237e+06
0 3.11779 -10.6019 1.1367e+06
0 3.85715 -10.7277 1.14971e+06
0 4.59651 -10.8536 1.16278e+06
0 5.33587 -10.9795 1.17576e+06
0 6.07523 -11.1054 1.18857e+06
0 6.81459 -11.2313 1.20103e+06
0 7.55394 -11.3572 1.21261e+06
0 8.2933 -11.4831 1.2235e+06
0 9.03266 -11.609 1.23425e+06
0 9.77202 -11.7349 1.24734e+06
0 10.5114 -11.8608 1.2629e+06
0 11.2507 -11.9867 1.27528e+06
0 11.9901 -12.1126 1.28298e+06
0 12.7295 -12.2385 1.29595e+06
0 13.5798 -11.9606 1.29314e+06
0 14.5412 -11.279 1.25273e+06
0 15.5026 -10.5974 1.23069e+06
0 16.464 -9.91573 1.21564e+06
0 17.4254 -9.23411 1.19726e+06
0 18.3868 -8.55248 1.15855e+06
0 18.9462 -7.74957 1.14403e+06
0 19.1035 -6.82537 1.14192e+06
0 19.2609 -5.90117 1.13827e+06
0 19.4183 -4.97697 1.11042e+06
0 19.5756 -4.05277 1.08416e+06
0 19.733 -3.12858 1.06784e+06
0 19.8904 -2.20438 1.05521e+06
0 20.0477 -1.28018 1.04662e+06
0 20.2051 -0.355983 1.04026e+06
0 20.3625 0.568215 1.03894e+06
0 20.5198 1.49241 1.04152e+06
0 20.6772 2.41661 1.04605e+06
0 20.8346 3.34081 1.05105e+06
0 20.9919 4.26501 1.06037e+06
0 21.1493 5.1892 1.06176e+06
0 21.3067 6.1134 1.03041e+06
0 21.0445 7.0562 1.00868e+06
0 20.3629 8.01759 1.0072e+06
0 19.6813 8.97898 1.00839e+06
0 18.9997 9.94037 1.0092e+06
0 18.318 10.9018 1.00561e+06
0 17.6364 11.8632 1.00218e+06
0 16.9548 12.8245 1.00279e+06
0 16.2732 13.7859 1.00324e+06
0 15.5915 14.7473 1.00272e+06
0 14.9099 15.7087 1.00275e+06
0 14.2283 16.6701 1.00319e+06
0 13.5467 17.6315 1.00335e+06
0 -6.26393 21.4274 1.00137e+06
0 -5.77102 21.3435 1.00191e+06
0 -5.27812 21.2596 1.00211e+06
0 -4.78521 21.1756 1.00226e+06
0 -4.29231 21.0917 1.00263e+06
0 -3.7994 21.0078 1.00286e+06
0 -3.30649 20.9238 1.00303e+06
0 -2.81359 20.8399 1.00319e+06
0 -2.32068 20.756 1.00332e+06
0 -1.82778 20.672 1.00338e+06
0 -1.33487 20.5881 1.00337e+06
0 -0.841967 20.5042 1.00335e+06
0 -0.349061 20.4203 1.00334e+06
0 0.143844 20.3363 1.00332e+06
0 0.63675 20.2524 1.00329e+06
0 1.12966 20.1685 1.00326e+06
0 1.62256 20.0845 1.00323e+06
0 2.11547 20.0006 1.0032e+06
0 2.60837 19.9167 1.00317e+06
0 3.10128 19.8328 1.00315e+06
0 3.59418 19.7488 1.00315e+06
0 4.08709 19.6649 1.00317e+06
0 4.57999 19.581 1.00323e+06
0 5.0729 19.497 1.00328e+06
0 5.5658 19.4131 1.00329e+06
0 6.05871 19.3292 1.00322e+06
0 6.55162 19.2452 1.00316e+06
0 7.04452 19.1613 1.00309e+06
0 7.53743 19.0774 1.00302e+06
0 8.03033 18.9935 1.00296e+06
0 8.52324 18.9095 1.0029e+06
0 9.01614 18.8256 1.00285e+06
0 9.50905 18.7417 1.00282e+06
0 10.002 18.6577 1.00279e+06
0 10.4949 18.5738 1.00277e+06
0 10.9878 18.4899 1.00277e+06
0 11.4807 18.406 1.00281e+06
0 11.9736 18.322 1.00288e+06
0 12.4665 18.2381 1.00301e+06
0 12.9594 18.1542 1.00329e+06
0 -17.5664 13.6307 998086
0 -16.605 14.3123 997853
0 -15.6436 14.9939 998951
0 -14.6822 15.6755 997991
0 -13.7208 16.3572 997842
0 -12.7594 17.0388 998259
0 -11.798 17.7204 999023
0 -10.8366 18.4021 999773
0 -9.87525 19.0837 1.0003e+06
0 -8.91386 19.7653 1.00074e+06
0 -7.95247 20.4469 1.00102e+06
0 -6.99108 21.1286 1.00153e+06
0 -20.4863 -1.03521 912893
0 -20.3289 -0.111015 915864
0 -20.1715 0.813183 915764
0 -20.0142 1.73738 915222
0 -19.8568 2.66158 915144
0 -19.6994 3.58578 914867
0 -19.5421 4.50997 914560
0 -19.3847 5.43417 915124
0 -19.2273 6.35837 930129
0 -19.07 7.28257 971254
0 -18.9126 8.20677 993143
0 -18.7552 9.13096 997525
0 -18.5979 10.0552 998436
0 -18.4405 10.9794 997832
0 -18.2831 11.9036 997918
0 -18.1258 12.8278 998049
0 -16.816 -6.78497 893616
0 -17.4976 -5.82357 908026
0 -18.1793 -4.86218 908759
0 -18.8609 -3.90079 915310
0 -19.5425 -2.9394 914599
0 -20.2241 -1.97801 916338
