# p  FACE_DATA 148
#  x  y  z  p
0 -12.7543 -12.2207 1.30832e+06
0 -12.0152 -12.093 1.28611e+06
0 -11.2762 -11.9653 1.27698e+06
0 -10.5371 -11.8377 1.26639e+06
0 -9.79807 -11.71 1.25729e+06
0 -9.05901 -11.5823 1.2372e+06
0 -8.31996 -11.4547 1.21457e+06
0 -7.5809 -11.327 1.19318e+06
0 -6.84185 -11.1993 1.1729e+06
0 -6.10279 -11.0717 1.15478e+06
0 -5.36374 -10.944 1.13775e+06
0 -4.62469 -10.8163 1.12096e+06
0 -3.88563 -10.6887 1.10459e+06
0 -3.14658 -10.561 1.08853e+06
0 -2.40752 -10.4333 1.07177e+06
0 -1.66847 -10.3057 1.05564e+06
0 -0.929416 -10.178 1.04095e+06
0 -0.190362 -10.0503 1.02436e+06
0 0.548692 -9.92265 1.0104e+06
0 1.28775 -9.79498 992580
0 2.0268 -9.66731 966914
0 2.76585 -9.53965 939578
0 3.50491 -9.41198 916547
0 4.24396 -9.28431 897684
0 4.98302 -9.15664 880104
0 5.72207 -9.02898 865272
0 6.46112 -8.90131 852505
0 7.20018 -8.77364 839190
0 7.93923 -8.64597 821924
0 8.67829 -8.5183 805413
0 9.41734 -8.39064 808661
0 10.1564 -8.26297 813190
0 10.8954 -8.1353 807598
0 11.6345 -8.00763 799264
0 12.3736 -7.87997 797355
0 13.1126 -7.7523 797014
0 13.8517 -7.62463 795925
0 14.5907 -7.49696 796000
0 15.3298 -7.36929 799358
0 16.0688 -7.24163 807957
0 16.778 -6.69628 803152
0 17.4573 -5.73326 818674
0 18.1366 -4.77023 832454
0 18.816 -3.80721 849848
0 19.4953 -2.84418 873700
0 20.1746 -1.88116 903373
0 20.4345 -0.937738 929176
0 20.2749 -0.0139206 942431
0 20.1153 0.909897 952352
0 19.9557 1.83371 957666
0 19.7961 2.75753 958388
0 19.6365 3.68135 960117
0 19.477 4.60517 960227
0 19.3174 5.52899 959707
0 19.1578 6.4528 958175
0 18.9982 7.37662 957623
0 18.8386 8.30044 969769
0 18.679 9.22426 976172
0 18.5195 10.1481 980972
0 18.3599 11.0719 981543
0 18.2003 11.9957 981621
0 18.0407 12.9195 982075
0 17.4794 13.7211 982380
0 16.5164 14.4004 982684
0 15.5533 15.0797 983276
0 14.5903 15.759 983526
0 13.6273 16.4384 983269
0 12.6643 17.1177 983182
0 11.7012 17.797 983487
0 10.7382 18.4763 984149
0 9.7752 19.1556 984928
0 8.81218 19.835 985661
0 7.84915 20.5143 986353
0 6.88613 21.1936 986877
0 -13.0571 18.1713 992506
0 -12.5644 18.2564 992170
0 -12.0717 18.3416 992056
0 -11.579 18.4267 991884
0 -11.0863 18.5118 991700
0 -10.5936 18.5969 991505
0 -10.1009 18.682 991291
0 -9.60822 18.7671 991077
0 -9.11552 18.8522 990820
0 -8.62282 18.9373 990598
0 -8.13012 19.0225 990407
0 -7.63741 19.1076 990221
0 -7.14471 19.1927 990040
0 -6.65201 19.2778 989861
0 -6.1593 19.3629 989694
0 -5.6666 19.448 989493
0 -5.1739 19.5331 989303
0 -4.6812 19.6182 989161
0 -4.18849 19.7033 989046
0 -3.69579 19.7885 988947
0 -3.20309 19.8736 988857
0 -2.71039 19.9587 988772
0 -2.21768 20.0438 988694
0 -1.72498 20.1289 988621
0 -1.23228 20.214 988545
0 -0.739574 20.2991 988460
0 -0.246872 20.3842 988353
0 0.245831 20.4694 988240
0 0.738534 20.5545 988120
0 1.23124 20.6396 988049
0 1.72394 20.7247 988024
0 2.21664 20.8098 987819
0 2.70934 20.8949 987477
0 3.20205 20.98 987496
0 3.69475 21.0651 987451
0 4.18745 21.1502 987372
0 4.68016 21.2354 987264
0 5.17286 21.3205 987122
0 5.66556 21.4056 986987
0 6.15826 21.4907 986843
0 -21.1157 7.054 999927
0 -20.4363 8.01702 997173
0 -19.757 8.98005 996043
0 -19.0777 9.94307 995507
0 -18.3984 10.9061 995123
0 -17.7191 11.8691 994832
0 -17.0397 12.8321 994623
0 -16.3604 13.7952 994352
0 -15.6811 14.7582 993823
0 -15.0018 15.7212 993381
0 -14.3225 16.6842 993092
0 -13.6432 17.6473 992752
0 -18.9817 -7.74669 1.16736e+06
0 -19.1413 -6.82287 1.12999e+06
0 -19.3009 -5.89905 1.09102e+06
0 -19.4605 -4.97523 1.05687e+06
0 -19.6201 -4.05142 1.02828e+06
0 -19.7797 -3.1276 1.0177e+06
0 -19.9393 -2.20378 1.01403e+06
0 -20.0988 -1.27996 1.01161e+06
0 -20.2584 -0.356147 1.00973e+06
0 -20.418 0.567671 1.00925e+06
0 -20.5776 1.49149 1.00919e+06
0 -20.7372 2.41531 1.007e+06
0 -20.8968 3.33912 1.01546e+06
0 -21.0563 4.26294 1.02296e+06
0 -21.2159 5.18676 1.0126e+06
0 -21.3755 6.11058 1.00293e+06
0 -13.6053 -11.9448 1.30554e+06
0 -14.5683 -11.2655 1.27348e+06
0 -15.5314 -10.5862 1.25315e+06
0 -16.4944 -9.90689 1.23498e+06
0 -17.4574 -9.22757 1.21918e+06
0 -18.4204 -8.54826 1.19903e+06
