# p  FACE_DATA 148
#  x  y  z  p
0 -14.4772 -10.0496 1.04522e+06
0 -13.7272 -10.0394 1.03347e+06
0 -12.9773 -10.0292 1.0229e+06
0 -12.2274 -10.019 1.01299e+06
0 -11.4775 -10.0088 1.00412e+06
0 -10.7275 -9.99863 996662
0 -9.9776 -9.98843 989490
0 -9.22766 -9.97823 983207
0 -8.47773 -9.96803 977341
0 -7.7278 -9.95783 973123
0 -6.97787 -9.94763 968336
0 -6.22794 -9.93743 965155
0 -5.47801 -9.92723 967391
0 -4.72808 -9.91703 968925
0 -3.97815 -9.90683 970652
0 -3.22822 -9.89663 973206
0 -2.47829 -9.88643 973579
0 -1.72836 -9.87623 970020
0 -0.978427 -9.86603 969245
0 -0.228497 -9.85583 965735
0 0.521434 -9.84563 958650
0 1.27136 -9.83543 951646
0 2.0213 -9.82523 946590
0 2.77123 -9.81503 944894
0 3.52116 -9.80483 948647
0 4.27109 -9.79463 956534
0 5.02102 -9.78443 967402
0 5.77095 -9.77423 978846
0 6.52088 -9.76403 989466
0 7.27081 -9.75383 1.00181e+06
0 8.02074 -9.74363 1.01536e+06
0 8.77067 -9.73343 1.02764e+06
0 9.5206 -9.72323 1.04018e+06
0 10.2705 -9.71303 1.05655e+06
0 11.0205 -9.70283 1.07665e+06
0 11.7704 -9.69263 1.09652e+06
0 12.5203 -9.68243 1.1122e+06
0 13.2703 -9.67223 1.1243e+06
0 14.0202 -9.66203 1.13925e+06
0 14.7701 -9.65183 1.16383e+06
0 15.556 -9.22444 1.15961e+06
0 16.378 -8.37985 1.1375e+06
0 17.1999 -7.53526 1.12397e+06
0 18.0218 -6.69067 1.11952e+06
0 18.8437 -5.84608 1.13291e+06
0 19.6657 -5.00149 1.1554e+06
0 20.0702 -4.11049 1.13357e+06
0 20.0575 -3.17308 1.11067e+06
0 20.0447 -2.23566 1.09543e+06
0 20.032 -1.29825 1.08199e+06
0 20.0192 -0.360837 1.06918e+06
0 20.0065 0.576576 1.05783e+06
0 19.9937 1.51399 1.04669e+06
0 19.981 2.4514 1.02847e+06
0 19.9682 3.38882 1.01367e+06
0 19.9555 4.32623 1.00608e+06
0 19.9427 5.26364 1.00222e+06
0 19.93 6.20106 1.00176e+06
0 19.9172 7.13847 1.00168e+06
0 19.9045 8.07588 1.00146e+06
0 19.8917 9.0133 1.00131e+06
0 19.879 9.95071 1.00177e+06
0 19.4503 10.8304 996593
0 18.6057 11.6523 995689
0 17.7611 12.4742 994767
0 16.9166 13.2961 993845
0 16.072 14.1181 993217
0 15.2274 14.94 992833
0 14.3828 15.7619 992600
0 13.5382 16.5838 992398
0 12.6936 17.4058 992275
0 11.849 18.2277 992767
0 11.0044 19.0496 993503
0 10.1598 19.8715 993559
0 -10.0106 20.0139 990260
0 -9.51067 20.0207 990605
0 -9.01072 20.0275 990446
0 -8.51076 20.0343 990330
0 -8.01081 20.0411 990196
0 -7.51086 20.0479 990078
0 -7.0109 20.0547 989989
0 -6.51095 20.0615 989920
0 -6.011 20.0683 989919
0 -5.51104 20.0751 989916
0 -5.01109 20.0819 989936
0 -4.51113 20.0887 989991
0 -4.01118 20.0955 990076
0 -3.51123 20.1023 990164
0 -3.01127 20.1091 990220
0 -2.51132 20.1159 990217
0 -2.01137 20.1227 990171
0 -1.51141 20.1295 990180
0 -1.01146 20.1363 990186
0 -0.511505 20.1431 990222
0 -0.0115509 20.1499 990285
0 0.488403 20.1567 990358
0 0.988357 20.1635 990396
0 1.48831 20.1703 990427
0 1.98826 20.1771 990601
0 2.48822 20.1839 990704
0 2.98817 20.1907 990768
0 3.48813 20.1975 990835
0 3.98808 20.2043 990927
0 4.48803 20.2111 991039
0 4.98799 20.2179 991154
0 5.48794 20.2247 991296
0 5.98789 20.2315 991407
0 6.48785 20.2383 991500
0 6.9878 20.2451 992113
0 7.48776 20.2519 992521
0 7.98771 20.2587 992778
0 8.48766 20.2655 993017
0 8.98762 20.2723 993338
0 9.48757 20.2791 993513
0 -19.7127 10.2977 989377
0 -18.8908 11.1423 989504
0 -18.0689 11.9869 989922
0 -17.2469 12.8315 990187
0 -16.425 13.6761 990115
0 -15.6031 14.5207 989789
0 -14.7812 15.3653 989560
0 -13.9593 16.2098 989533
0 -13.1373 17.0544 989599
0 -12.3154 17.899 989828
0 -11.4935 18.7436 990008
0 -10.6716 19.5882 990502
0 -19.9261 -4.65449 1.00072e+06
0 -19.9388 -3.71707 995274
0 -19.9516 -2.77966 993907
0 -19.9643 -1.84225 993026
0 -19.9771 -0.904832 992092
0 -19.9898 0.0325812 991031
0 -20.0026 0.969995 989377
0 -20.0153 1.90741 986995
0 -20.0281 2.84482 988491
0 -20.0408 3.78223 991424
0 -20.0536 4.71965 991575
0 -20.0663 5.65706 991219
0 -20.0791 6.59447 990658
0 -20.0918 7.53189 990175
0 -20.1046 8.4693 989885
0 -20.1173 9.40671 989599
0 -15.2744 -9.64377 1.04113e+06
0 -16.119 -8.82185 1.05397e+06
0 -16.9636 -7.99992 1.0345e+06
0 -17.8082 -7.178 1.02137e+06
0 -18.6528 -6.35608 1.0153e+06
0 -19.4974 -5.53415 1.00568e+06
