# p  FACE_DATA 148
#  x  y  z  p
0 -16.3199 -6.67637 787151
0 -15.5869 -6.83489 787752
0 -14.8538 -6.99341 786982
0 -14.1208 -7.15193 791386
0 -13.3877 -7.31045 799416
0 -12.6546 -7.46897 809406
0 -11.9216 -7.62749 818488
0 -11.1885 -7.78601 829449
0 -10.4555 -7.94453 847332
0 -9.72242 -8.10305 871590
0 -8.98936 -8.26156 881131
0 -8.2563 -8.42008 884928
0 -7.52325 -8.5786 892236
0 -6.79019 -8.73712 916846
0 -6.05714 -8.89564 940078
0 -5.32408 -9.05416 959800
0 -4.59102 -9.21268 978806
0 -3.85797 -9.3712 998340
0 -3.12491 -9.52972 1.01939e+06
0 -2.39185 -9.68824 1.04302e+06
0 -1.6588 -9.84676 1.06924e+06
0 -0.925741 -10.0053 1.09614e+06
0 -0.192685 -10.1638 1.1238e+06
0 0.540371 -10.3223 1.15278e+06
0 1.27343 -10.4808 1.18289e+06
0 2.00648 -10.6394 1.21186e+06
0 2.73954 -10.7979 1.23802e+06
0 3.4726 -10.9564 1.25741e+06
0 4.20565 -11.1149 1.27589e+06
0 4.93871 -11.2734 1.29879e+06
0 5.67177 -11.432 1.32473e+06
0 6.40482 -11.5905 1.35162e+06
0 7.13788 -11.749 1.37709e+06
0 7.87093 -11.9075 1.40126e+06
0 8.60399 -12.066 1.42299e+06
0 9.33705 -12.2246 1.4336e+06
0 10.0701 -12.3831 1.44421e+06
0 10.8032 -12.5416 1.45739e+06
0 11.5362 -12.7001 1.46204e+06
0 12.2693 -12.8586 1.48259e+06
0 13.1311 -12.6187 1.48044e+06
0 14.1218 -11.9803 1.43369e+06
0 15.1124 -11.342 1.4049e+06
0 16.103 -10.7036 1.37805e+06
0 17.0937 -10.0652 1.35022e+06
0 18.0843 -9.42684 1.31592e+06
0 18.6787 -8.64949 1.2626e+06
0 18.8769 -7.73317 1.21815e+06
0 19.075 -6.81685 1.18162e+06
0 19.2732 -5.90053 1.15091e+06
0 19.4713 -4.98421 1.12324e+06
0 19.6695 -4.06789 1.09171e+06
0 19.8676 -3.15157 1.05502e+06
0 20.0658 -2.23525 1.04624e+06
0 20.2639 -1.31893 1.04457e+06
0 20.4621 -0.402606 1.04368e+06
0 20.6602 0.513714 1.03821e+06
0 20.8584 1.43003 1.03193e+06
0 21.0565 2.34635 1.03016e+06
0 21.2547 3.26268 1.02909e+06
0 21.4528 4.179 1.01396e+06
0 21.651 5.09532 1.01467e+06
0 21.4308 6.0488 997839
0 20.7925 7.03944 991272
0 20.1541 8.03008 990652
0 19.5157 9.02072 990918
0 18.8773 10.0114 990944
0 18.239 11.002 990750
0 17.6006 11.9926 990498
0 16.9622 12.9833 990189
0 16.3239 13.9739 989825
0 15.6855 14.9646 989423
0 15.0471 15.9552 988926
0 14.4087 16.9458 988158
0 -5.21427 21.6155 981553
0 -4.72557 21.5098 981857
0 -4.23686 21.4041 982074
0 -3.74816 21.2985 982285
0 -3.25946 21.1928 982495
0 -2.77075 21.0871 982707
0 -2.28205 20.9814 982883
0 -1.79334 20.8757 983053
0 -1.30464 20.7701 983218
0 -0.815934 20.6644 983379
0 -0.32723 20.5587 983534
0 0.161474 20.453 983686
0 0.650178 20.3473 983844
0 1.13888 20.2417 984030
0 1.62759 20.136 984178
0 2.11629 20.0303 984311
0 2.60499 19.9246 984443
0 3.0937 19.8189 984571
0 3.5824 19.7133 984692
0 4.07111 19.6076 984802
0 4.55981 19.5019 984899
0 5.04852 19.3962 984981
0 5.53722 19.2906 985052
0 6.02592 19.1849 985116
0 6.51463 19.0792 985168
0 7.00333 18.9735 985144
0 7.49204 18.8678 985015
0 7.98074 18.7622 985515
0 8.46945 18.6565 985914
0 8.95815 18.5508 986027
0 9.44685 18.4451 986163
0 9.93556 18.3394 986320
0 10.4243 18.2338 986495
0 10.913 18.1281 986678
0 11.4017 18.0224 986863
0 11.8904 17.9167 987090
0 12.3791 17.811 987333
0 12.8678 17.7054 987534
0 13.3565 17.5997 987747
0 13.8452 17.494 988084
0 -16.851 14.327 975888
0 -15.8603 14.9654 976538
0 -14.8697 15.6038 977050
0 -13.8791 16.2422 977541
0 -12.8884 16.8805 977866
0 -11.8978 17.5189 977732
0 -10.9071 18.1573 978402
0 -9.9165 18.7957 979108
0 -8.92586 19.434 979689
0 -7.93522 20.0724 980172
0 -6.94458 20.7108 980726
0 -5.95394 21.3492 981608
0 -20.4176 -0.195109 936674
0 -20.2195 0.721211 961937
0 -20.0213 1.63753 968708
0 -19.8232 2.55385 962436
0 -19.625 3.47017 963628
0 -19.4269 4.38649 965521
0 -19.2287 5.30281 968663
0 -19.0306 6.21913 969723
0 -18.8324 7.13545 970704
0 -18.6343 8.05177 972568
0 -18.4361 8.96809 972913
0 -18.238 9.88441 973201
0 -18.0398 10.8007 973416
0 -17.8417 11.7171 973773
0 -17.6435 12.6334 974291
0 -17.4454 13.5497 975012
0 -17.0056 -6.10179 781381
0 -17.644 -5.11115 806116
0 -18.2824 -4.12051 819954
0 -18.9208 -3.12987 838085
0 -19.5591 -2.13923 865268
0 -20.1975 -1.14859 895829
