# p  FACE_DATA 148
#  x  y  z  p
0 -12.202 -12.9556 1.31383e+06
0 -11.4696 -12.7943 1.30063e+06
0 -10.7371 -12.633 1.30029e+06
0 -10.0047 -12.4717 1.29428e+06
0 -9.27224 -12.3104 1.28669e+06
0 -8.53979 -12.1491 1.27745e+06
0 -7.80734 -11.9878 1.26707e+06
0 -7.07489 -11.8265 1.25579e+06
0 -6.34244 -11.6652 1.24373e+06
0 -5.60999 -11.5039 1.23102e+06
0 -4.87754 -11.3426 1.21769e+06
0 -4.14509 -11.1813 1.20376e+06
0 -3.41264 -11.02 1.18934e+06
0 -2.68019 -10.8587 1.1748e+06
0 -1.94774 -10.6974 1.16141e+06
0 -1.21529 -10.5361 1.14985e+06
0 -0.482841 -10.3748 1.13691e+06
0 0.249609 -10.2135 1.11905e+06
0 0.982059 -10.0522 1.09958e+06
0 1.71451 -9.89093 1.08086e+06
0 2.44696 -9.72963 1.06399e+06
0 3.17941 -9.56834 1.04867e+06
0 3.91186 -9.40704 1.03431e+06
0 4.64431 -9.24574 1.02059e+06
0 5.37676 -9.08444 1.00729e+06
0 6.10921 -8.92314 995069
0 6.84166 -8.76184 983174
0 7.57411 -8.60055 971169
0 8.30656 -8.43925 959300
0 9.03901 -8.27795 947585
0 9.77146 -8.11665 935776
0 10.5039 -7.95535 924429
0 11.2364 -7.79405 914420
0 11.9688 -7.63275 906148
0 12.7013 -7.47146 899219
0 13.4337 -7.31016 893365
0 14.1662 -7.14886 888615
0 14.8986 -6.98756 886153
0 15.6311 -6.82626 887185
0 16.3635 -6.66496 887489
0 17.047 -6.08779 881668
0 17.6817 -5.09473 900158
0 18.3163 -4.10168 905447
0 18.9509 -3.10863 912725
0 19.5855 -2.11557 927128
0 20.2201 -1.12252 949176
0 20.4366 -0.168211 971001
0 20.235 0.747351 991295
0 20.0333 1.66291 998588
0 19.8317 2.57848 998626
0 19.6301 3.49404 998680
0 19.4285 4.4096 998815
0 19.2269 5.32516 998924
0 19.0252 6.24073 999012
0 18.8236 7.15629 999084
0 18.622 8.07185 999144
0 18.4204 8.98741 999199
0 18.2187 9.90297 999255
0 18.0171 10.8185 999325
0 17.8155 11.7341 999415
0 17.6139 12.6497 999516
0 17.4122 13.5652 999642
0 16.8149 14.3403 999891
0 15.8219 14.9749 1.00011e+06
0 14.8288 15.6095 1.00028e+06
0 13.8358 16.2441 1.00041e+06
0 12.8427 16.8788 1.00047e+06
0 11.8496 17.5134 1.00048e+06
0 10.8566 18.148 1.00052e+06
0 9.86354 18.7826 1.00058e+06
0 8.87048 19.4172 1.00067e+06
0 7.87743 20.0518 1.00081e+06
0 6.88437 20.6864 1.00095e+06
0 5.89132 21.3211 1.00123e+06
0 -13.8931 17.3908 1.00373e+06
0 -13.4048 17.4984 1.00353e+06
0 -12.9165 17.6059 1.00343e+06
0 -12.4282 17.7134 1.00331e+06
0 -11.9399 17.821 1.00319e+06
0 -11.4516 17.9285 1.00308e+06
0 -10.9633 18.036 1.00297e+06
0 -10.475 18.1436 1.00288e+06
0 -9.98665 18.2511 1.00279e+06
0 -9.49835 18.3586 1.00271e+06
0 -9.01005 18.4662 1.00263e+06
0 -8.52175 18.5737 1.00257e+06
0 -8.03345 18.6812 1.00251e+06
0 -7.54515 18.7888 1.00245e+06
0 -7.05685 18.8963 1.00241e+06
0 -6.56855 19.0038 1.00236e+06
0 -6.08025 19.1113 1.00232e+06
0 -5.59195 19.2189 1.00228e+06
0 -5.10365 19.3264 1.00224e+06
0 -4.61535 19.4339 1.00221e+06
0 -4.12705 19.5415 1.00218e+06
0 -3.63875 19.649 1.00216e+06
0 -3.15045 19.7565 1.00214e+06
0 -2.66215 19.8641 1.00212e+06
0 -2.17386 19.9716 1.00211e+06
0 -1.68556 20.0791 1.00209e+06
0 -1.19726 20.1867 1.00208e+06
0 -0.708955 20.2942 1.00206e+06
0 -0.220655 20.4017 1.00202e+06
0 0.267645 20.5093 1.00198e+06
0 0.755944 20.6168 1.00192e+06
0 1.24424 20.7243 1.00187e+06
0 1.73254 20.8319 1.00182e+06
0 2.22084 20.9394 1.00176e+06
0 2.70914 21.0469 1.0017e+06
0 3.19744 21.1545 1.00162e+06
0 3.68574 21.262 1.00154e+06
0 4.17404 21.3695 1.00144e+06
0 4.66234 21.4771 1.00133e+06
0 5.15064 21.5846 1.0012e+06
0 -21.4352 5.91695 1.00832e+06
0 -20.8006 6.91 1.00767e+06
0 -20.166 7.90305 1.00713e+06
0 -19.5314 8.89611 1.00667e+06
0 -18.8968 9.88916 1.00626e+06
0 -18.2622 10.8822 1.0059e+06
0 -17.6276 11.8753 1.00557e+06
0 -16.993 12.8683 1.00527e+06
0 -16.3583 13.8614 1.00496e+06
0 -15.7237 14.8544 1.00461e+06
0 -15.0891 15.8475 1.00424e+06
0 -14.4545 16.8405 1.00379e+06
0 -18.6274 -8.7708 1.12653e+06
0 -18.829 -7.85523 1.06087e+06
0 -19.0306 -6.93967 1.01808e+06
0 -19.2323 -6.02411 1.01373e+06
0 -19.4339 -5.10855 1.01337e+06
0 -19.6355 -4.19298 1.01317e+06
0 -19.8371 -3.27742 1.01277e+06
0 -20.0388 -2.36186 1.01227e+06
0 -20.2404 -1.4463 1.01183e+06
0 -20.442 -0.530735 1.01139e+06
0 -20.6436 0.384828 1.01096e+06
0 -20.8453 1.30039 1.01055e+06
0 -21.0469 2.21595 1.01013e+06
0 -21.2485 3.13151 1.00972e+06
0 -21.4501 4.04708 1.0093e+06
0 -21.6517 4.96264 1.00886e+06
0 -13.0648 -12.7189 1.31145e+06
0 -14.0578 -12.0843 1.27223e+06
0 -15.0509 -11.4497 1.24618e+06
0 -16.044 -10.8151 1.21989e+06
0 -17.037 -10.1805 1.19327e+06
0 -18.0301 -9.54588 1.16494e+06
