# p  FACE_DATA 148
#  x  y  z  p
0 -16.4879 -6.49976 950745
0 -15.7569 -6.66743 946822
0 -15.0258 -6.8351 939179
0 -14.2948 -7.00276 936718
0 -13.5638 -7.17043 938014
0 -12.8328 -7.3381 941643
0 -12.1018 -7.50577 946691
0 -11.3708 -7.67344 953288
0 -10.6397 -7.84111 961533
0 -9.90872 -8.00878 971005
0 -9.1777 -8.17645 981504
0 -8.44668 -8.34412 992736
0 -7.71567 -8.51179 1.00438e+06
0 -6.98465 -8.67946 1.0174e+06
0 -6.25363 -8.84713 1.03188e+06
0 -5.52261 -9.0148 1.04688e+06
0 -4.79159 -9.18247 1.06191e+06
0 -4.06058 -9.35014 1.0768e+06
0 -3.32956 -9.51781 1.09173e+06
0 -2.59854 -9.68548 1.10729e+06
0 -1.86752 -9.85314 1.124e+06
0 -1.13651 -10.0208 1.14132e+06
0 -0.405488 -10.1885 1.15967e+06
0 0.325529 -10.3562 1.17646e+06
0 1.05655 -10.5238 1.18972e+06
0 1.78756 -10.6915 1.20317e+06
0 2.51858 -10.8592 1.22026e+06
0 3.2496 -11.0268 1.23683e+06
0 3.98062 -11.1945 1.25273e+06
0 4.71164 -11.3622 1.26691e+06
0 5.44265 -11.5298 1.27986e+06
0 6.17367 -11.6975 1.29168e+06
0 6.90469 -11.8652 1.30235e+06
0 7.63571 -12.0328 1.31166e+06
0 8.36672 -12.2005 1.31982e+06
0 9.09774 -12.3682 1.32685e+06
0 9.82876 -12.5359 1.33264e+06
0 10.5598 -12.7035 1.33801e+06
0 11.2908 -12.8712 1.3347e+06
0 12.0218 -13.0389 1.33636e+06
0 12.8866 -12.8097 1.33405e+06
0 13.8851 -12.1838 1.27714e+06
0 14.8837 -11.5578 1.2637e+06
0 15.8822 -10.9319 1.2412e+06
0 16.8808 -10.306 1.21985e+06
0 17.8793 -9.68001 1.19183e+06
0 18.4834 -8.91016 1.14974e+06
0 18.693 -7.99638 1.11495e+06
0 18.9025 -7.08261 1.08572e+06
0 19.1121 -6.16884 1.06141e+06
0 19.3217 -5.25507 1.04153e+06
0 19.5313 -4.3413 1.02688e+06
0 19.7409 -3.42752 1.01928e+06
0 19.9505 -2.51375 1.01693e+06
0 20.1601 -1.59998 1.01537e+06
0 20.3696 -0.686206 1.01425e+06
0 20.5792 0.227566 1.01365e+06
0 20.7888 1.14134 1.01346e+06
0 20.9984 2.05511 1.01336e+06
0 21.208 2.96888 1.01322e+06
0 21.4176 3.88265 1.01081e+06
0 21.6272 4.79643 1.01123e+06
0 21.419 5.75258 1.00304e+06
0 20.793 6.75112 997372
0 20.1671 7.74967 997876
0 19.5412 8.74821 1.00053e+06
0 18.9152 9.74675 1.00667e+06
0 18.2893 10.7453 1.00458e+06
0 17.6633 11.7438 1.00484e+06
0 17.0374 12.7424 1.00512e+06
0 16.4114 13.7409 1.00514e+06
0 15.7855 14.7395 1.00495e+06
0 15.1596 15.738 1.00468e+06
0 14.5336 16.7365 1.00404e+06
0 -5.02949 21.6511 998441
0 -4.54214 21.5393 998780
0 -4.0548 21.4275 998252
0 -3.56745 21.3158 999730
0 -3.08011 21.204 1.00045e+06
0 -2.59276 21.0922 1.00069e+06
0 -2.10542 20.9804 1.00086e+06
0 -1.61807 20.8686 1.001e+06
0 -1.13073 20.7569 1.00131e+06
0 -0.643381 20.6451 1.00153e+06
0 -0.156036 20.5333 1.00159e+06
0 0.33131 20.4215 1.00162e+06
0 0.818655 20.3097 1.00167e+06
0 1.306 20.198 1.00174e+06
0 1.79335 20.0862 1.00181e+06
0 2.28069 19.9744 1.00189e+06
0 2.76804 19.8626 1.00199e+06
0 3.25538 19.7508 1.00209e+06
0 3.74273 19.6391 1.00215e+06
0 4.23007 19.5273 1.00219e+06
0 4.71742 19.4155 1.00221e+06
0 5.20476 19.3037 1.00224e+06
0 5.69211 19.192 1.00228e+06
0 6.17945 19.0802 1.00232e+06
0 6.6668 18.9684 1.00237e+06
0 7.15414 18.8566 1.00242e+06
0 7.64149 18.7448 1.00249e+06
0 8.12883 18.6331 1.00256e+06
0 8.61618 18.5213 1.00264e+06
0 9.10352 18.4095 1.00272e+06
0 9.59087 18.2977 1.00281e+06
0 10.0782 18.1859 1.00291e+06
0 10.5656 18.0742 1.00302e+06
0 11.0529 17.9624 1.00314e+06
0 11.5402 17.8506 1.00325e+06
0 12.0276 17.7388 1.00337e+06
0 12.5149 17.627 1.0035e+06
0 13.0023 17.5153 1.00365e+06
0 13.4896 17.4035 1.00371e+06
0 13.977 17.2917 1.00397e+06
0 -16.7564 14.5087 994835
0 -15.7578 15.1346 1.00215e+06
0 -14.7593 15.7605 1.00371e+06
0 -13.7608 16.3865 1.00028e+06
0 -12.7622 17.0124 999240
0 -11.7637 17.6384 997635
0 -10.7651 18.2643 997574
0 -9.7666 18.8903 998235
0 -8.76805 19.5162 998356
0 -7.76951 20.1421 997897
0 -6.77097 20.7681 996949
0 -5.77243 21.394 998868
0 -20.5043 0.0322123 990950
0 -20.2947 0.945984 989241
0 -20.0851 1.85976 989629
0 -19.8755 2.77353 990306
0 -19.6659 3.6873 991610
0 -19.4563 4.60107 993293
0 -19.2467 5.51485 994207
0 -19.0371 6.42862 993176
0 -18.8276 7.34239 992937
0 -18.618 8.25616 993725
0 -18.4084 9.16993 994960
0 -18.1988 10.0837 995397
0 -17.9892 10.9975 995622
0 -17.7796 11.9113 995612
0 -17.57 12.825 995787
0 -17.3604 13.7388 996073
0 -17.1664 -5.91665 944972
0 -17.7923 -4.91811 972468
0 -18.4182 -3.91957 971535
0 -19.0442 -2.92103 976305
0 -19.6701 -1.92249 986780
0 -20.2961 -0.923944 997646
