# p  FACE_DATA 148
#  x  y  z  p
0 -13.6409 -11.3912 1.32284e+06
0 -12.8944 -11.3184 1.3043e+06
0 -12.1479 -11.2456 1.29061e+06
0 -11.4015 -11.1728 1.27761e+06
0 -10.655 -11.1 1.26126e+06
0 -9.90856 -11.0272 1.23645e+06
0 -9.1621 -10.9544 1.21152e+06
0 -8.41564 -10.8816 1.18996e+06
0 -7.66918 -10.8088 1.17011e+06
0 -6.92272 -10.736 1.14933e+06
0 -6.17626 -10.6632 1.13006e+06
0 -5.42981 -10.5905 1.11464e+06
0 -4.68335 -10.5177 1.1011e+06
0 -3.93689 -10.4449 1.09202e+06
0 -3.19043 -10.3721 1.08848e+06
0 -2.44397 -10.2993 1.08913e+06
0 -1.69751 -10.2265 1.08986e+06
0 -0.951054 -10.1537 1.08402e+06
0 -0.204595 -10.0809 1.07198e+06
0 0.541864 -10.0081 1.0592e+06
0 1.28832 -9.93528 1.04721e+06
0 2.03478 -9.86248 1.03629e+06
0 2.78124 -9.78968 1.0266e+06
0 3.5277 -9.71689 1.01788e+06
0 4.27416 -9.64409 1.01021e+06
0 5.02062 -9.57129 1.00443e+06
0 5.76707 -9.4985 1.00101e+06
0 6.51353 -9.4257 998501
0 7.25999 -9.3529 995969
0 8.00645 -9.28011 994224
0 8.75291 -9.20731 992415
0 9.49937 -9.13451 990825
0 10.2458 -9.06172 989586
0 10.9923 -8.98892 988586
0 11.7387 -8.91612 988000
0 12.4852 -8.84332 987409
0 13.2317 -8.77053 988896
0 13.9781 -8.69773 991379
0 14.7246 -8.62493 995533
0 15.471 -8.55214 1.00125e+06
0 16.2185 -8.0606 996526
0 16.967 -7.15031 1.00351e+06
0 17.7155 -6.24003 999773
0 18.4641 -5.32974 999340
0 19.2126 -4.41946 1.00122e+06
0 19.9611 -3.50918 1.00314e+06
0 20.2898 -2.5875 1.01082e+06
0 20.1989 -1.65442 1.00825e+06
0 20.1079 -0.72135 1.00537e+06
0 20.0169 0.211723 1.00151e+06
0 19.9259 1.1448 993722
0 19.8349 2.07787 992924
0 19.7439 3.01094 992912
0 19.6529 3.94402 992590
0 19.5619 4.87709 990213
0 19.4709 5.81016 985457
0 19.3799 6.74324 984104
0 19.2889 7.67631 986526
0 19.1979 8.60938 991313
0 19.1069 9.54246 991162
0 19.0159 10.4755 991492
0 18.9249 11.4086 991689
0 18.4243 12.2494 991757
0 17.514 12.9979 991377
0 16.6037 13.7464 991099
0 15.6934 14.4949 992456
0 14.7831 15.2434 993198
0 13.8728 15.992 993670
0 12.9626 16.7405 993618
0 12.0523 17.489 993681
0 11.142 18.2375 993822
0 10.2317 18.986 993994
0 9.32142 19.7345 994105
0 8.41114 20.483 994390
0 -11.7007 18.9403 998594
0 -11.2031 18.9888 996439
0 -10.7055 19.0374 996354
0 -10.2078 19.0859 995892
0 -9.71019 19.1344 995500
0 -9.21255 19.183 995267
0 -8.71491 19.2315 995032
0 -8.21727 19.28 994808
0 -7.71964 19.3286 994595
0 -7.222 19.3771 994399
0 -6.72436 19.4256 994223
0 -6.22672 19.4742 994071
0 -5.72908 19.5227 993953
0 -5.23144 19.5712 993863
0 -4.7338 19.6197 993826
0 -4.23616 19.6683 993860
0 -3.73852 19.7168 993939
0 -3.24088 19.7653 994058
0 -2.74324 19.8139 994204
0 -2.24561 19.8624 994353
0 -1.74797 19.9109 994490
0 -1.25033 19.9595 994618
0 -0.752688 20.008 994730
0 -0.255049 20.0565 994809
0 0.24259 20.1051 994868
0 0.74023 20.1536 994906
0 1.23787 20.2021 994920
0 1.73551 20.2507 994914
0 2.23315 20.2992 994894
0 2.73079 20.3477 994864
0 3.22843 20.3962 994828
0 3.72606 20.4448 994789
0 4.2237 20.4933 994749
0 4.72134 20.5418 994712
0 5.21898 20.5904 994674
0 5.71662 20.6389 994628
0 6.21426 20.6874 994572
0 6.7119 20.736 994522
0 7.20954 20.7845 994473
0 7.70718 20.833 994350
0 -20.5575 8.44778 1.00122e+06
0 -19.809 9.35806 998411
0 -19.0604 10.2683 997638
0 -18.3119 11.1786 997005
0 -17.5634 12.0889 997137
0 -16.8149 12.9992 997280
0 -16.0664 13.9095 997025
0 -15.3179 14.8198 996343
0 -14.5694 15.7301 995777
0 -13.8209 16.6403 996328
0 -13.0723 17.5506 998309
0 -12.3238 18.4609 998722
0 -19.5213 -6.47 1.19654e+06
0 -19.6123 -5.53693 1.1695e+06
0 -19.7033 -4.60385 1.14005e+06
0 -19.7943 -3.67078 1.11454e+06
0 -19.8853 -2.73771 1.09614e+06
0 -19.9763 -1.80463 1.08533e+06
0 -20.0673 -0.871561 1.10081e+06
0 -20.1583 0.0615119 1.10225e+06
0 -20.2493 0.994585 1.05871e+06
0 -20.3402 1.92766 1.02926e+06
0 -20.4312 2.86073 1.02699e+06
0 -20.5222 3.79381 1.03151e+06
0 -20.6132 4.72688 1.03114e+06
0 -20.7042 5.65995 1.00568e+06
0 -20.7952 6.59303 1.00193e+06
0 -20.8862 7.5261 1.00181e+06
0 -14.4692 -11.0534 1.32054e+06
0 -15.3795 -10.3048 1.29023e+06
0 -16.2898 -9.55633 1.26691e+06
0 -17.2001 -8.80782 1.25527e+06
0 -18.1104 -8.05931 1.2485e+06
0 -19.0206 -7.31079 1.22774e+06
