# Field minima and maxima
# Time           	min(p)           	max(p)           
0.00120481928    	1.0000000000e+05	1.0780756197e+05
0.00220481928    	1.0000000000e+05	1.0988710292e+05
0.00320481928    	1.0000000000e+05	1.1017842061e+05
0.00420481928    	1.0000000000e+05	1.0957515558e+05
0.00520481928    	1.0000000000e+05	1.0929597698e+05
0.00620481928    	1.0000000000e+05	1.0924648686e+05
0.00720481928    	1.0000000000e+05	1.0935540764e+05
0.00820481928    	1.0000000000e+05	1.0938317765e+05
0.00920481928    	1.0000000000e+05	1.0941183260e+05
0.0102048193     	1.0000000000e+05	1.0938599340e+05
0.0112048193     	1.0000000000e+05	1.0939665684e+05
0.0122048193     	1.0000000000e+05	1.0938310447e+05
0.0132048193     	1.0000000000e+05	1.0939820533e+05
0.0142048193     	1.0000000000e+05	1.0938895345e+05
0.0152048193     	1.0000000000e+05	1.0940013584e+05
0.0162048193     	1.0000000000e+05	1.0939144560e+05
0.0172048193     	1.0000000000e+05	1.0940025047e+05
0.0182048193     	1.0000000000e+05	1.0939308005e+05
0.0192048193     	1.0000000000e+05	1.0940048211e+05
0.0202048193     	1.0000000000e+05	1.0939447249e+05
0.0212048193     	1.0000000000e+05	1.0940062200e+05
0.0222048193     	1.0000000000e+05	1.0939549754e+05
0.0232048193     	1.0000000000e+05	1.0940064795e+05
0.0242048193     	1.0000000000e+05	1.0939628046e+05
0.0252048193     	1.0000000000e+05	1.0940062698e+05
0.0262048193     	1.0000000000e+05	1.0939689418e+05
0.0272048193     	1.0000000000e+05	1.0940057501e+05
0.0282048193     	1.0000000000e+05	1.0939737710e+05
0.0292048193     	1.0000000000e+05	1.0940050405e+05
0.0302048193     	1.0000000000e+05	1.0939776105e+05
0.0312048193     	1.0000000000e+05	1.0940042410e+05
0.0322048193     	1.0000000000e+05	1.0939806915e+05
0.0332048193     	1.0000000000e+05	1.0940034129e+05
0.0342048193     	1.0000000000e+05	1.0939831821e+05
0.0352048193     	1.0000000000e+05	1.0940025960e+05
0.0362048193     	1.0000000000e+05	1.0939852093e+05
0.0372048193     	1.0000000000e+05	1.0940018158e+05
0.0382048193     	1.0000000000e+05	1.0939868698e+05
0.0392048193     	1.0000000000e+05	1.0940010870e+05
0.0402048193     	1.0000000000e+05	1.0939882373e+05
0.0412048193     	1.0000000000e+05	1.0940004175e+05
0.0422048193     	1.0000000000e+05	1.0939893692e+05
0.0432048193     	1.0000000000e+05	1.0939998099e+05
0.0442048193     	1.0000000000e+05	1.0939903104e+05
0.0452048193     	1.0000000000e+05	1.0939992637e+05
0.0462048193     	1.0000000000e+05	1.0939910960e+05
0.0472048193     	1.0000000000e+05	1.0939987766e+05
0.0482048193     	1.0000000000e+05	1.0939917541e+05
0.0492048193     	1.0000000000e+05	1.0939983447e+05
0.0502048193     	1.0000000000e+05	1.0939923071e+05
0.0512048193     	1.0000000000e+05	1.0939979638e+05
0.0522048193     	1.0000000000e+05	1.0939927733e+05
0.0532048193     	1.0000000000e+05	1.0939976292e+05
0.0542048193     	1.0000000000e+05	1.0939931670e+05
0.0552048193     	1.0000000000e+05	1.0939973362e+05
0.0562048193     	1.0000000000e+05	1.0939935005e+05
0.0572048193     	1.0000000000e+05	1.0939970805e+05
0.0582048193     	1.0000000000e+05	1.0939937833e+05
0.0592048193     	1.0000000000e+05	1.0939968577e+05
0.0602048193     	1.0000000000e+05	1.0939940237e+05
0.0612048193     	1.0000000000e+05	1.0939966641e+05
0.0622048193     	1.0000000000e+05	1.0939942282e+05
0.0632048193     	1.0000000000e+05	1.0939964961e+05
0.0642048193     	1.0000000000e+05	1.0939944025e+05
0.0652048193     	1.0000000000e+05	1.0939963506e+05
0.0662048193     	1.0000000000e+05	1.0939945511e+05
0.0672048193     	1.0000000000e+05	1.0939962246e+05
0.0682048193     	1.0000000000e+05	1.0939946780e+05
0.0692048193     	1.0000000000e+05	1.0939961156e+05
0.0702048193     	1.0000000000e+05	1.0939947865e+05
0.0712048193     	1.0000000000e+05	1.0939960215e+05
0.0722048193     	1.0000000000e+05	1.0939948793e+05
0.0732048193     	1.0000000000e+05	1.0939959403e+05
0.0742048193     	1.0000000000e+05	1.0939949587e+05
0.0752048193     	1.0000000000e+05	1.0939958703e+05
0.0762048193     	1.0000000000e+05	1.0939950267e+05
0.0772048193     	1.0000000000e+05	1.0939958099e+05
0.0782048193     	1.0000000000e+05	1.0939950850e+05
0.0792048193     	1.0000000000e+05	1.0939957579e+05
0.0802048193     	1.0000000000e+05	1.0939951349e+05
0.0812048193     	1.0000000000e+05	1.0939957131e+05
0.0822048193     	1.0000000000e+05	1.0939951777e+05
0.0832048193     	1.0000000000e+05	1.0939956745e+05
0.0842048193     	1.0000000000e+05	1.0939952145e+05
0.0852048193     	1.0000000000e+05	1.0939956413e+05
0.0862048193     	1.0000000000e+05	1.0939952460e+05
0.0872048193     	1.0000000000e+05	1.0939956128e+05
0.0882048193     	1.0000000000e+05	1.0939952730e+05
0.0892048193     	1.0000000000e+05	1.0939955882e+05
0.0902048193     	1.0000000000e+05	1.0939952962e+05
0.0912048193     	1.0000000000e+05	1.0939955670e+05
0.0922048193     	1.0000000000e+05	1.0939953160e+05
0.0932048193     	1.0000000000e+05	1.0939955488e+05
0.0942048193     	1.0000000000e+05	1.0939953331e+05
0.0952048193     	1.0000000000e+05	1.0939955331e+05
0.0962048193     	1.0000000000e+05	1.0939953477e+05
0.0972048193     	1.0000000000e+05	1.0939955196e+05
0.0982048193     	1.0000000000e+05	1.0939953603e+05
0.0992048193     	1.0000000000e+05	1.0939955079e+05
0.100204819      	1.0000000000e+05	1.0939953711e+05
0.101204819      	1.0000000000e+05	1.0939954980e+05
0.102204819      	1.0000000000e+05	1.0939953803e+05
0.103204819      	1.0000000000e+05	1.0939954894e+05
0.104204819      	1.0000000000e+05	1.0939953883e+05
0.105204819      	1.0000000000e+05	1.0939954821e+05
0.106204819      	1.0000000000e+05	1.0939953952e+05
0.107204819      	1.0000000000e+05	1.0939954758e+05
0.108204819      	1.0000000000e+05	1.0939954011e+05
0.109204819      	1.0000000000e+05	1.0939954703e+05
0.110204819      	1.0000000000e+05	1.0939954062e+05
0.111204819      	1.0000000000e+05	1.0939954657e+05
0.112204819      	1.0000000000e+05	1.0939954106e+05
0.113204819      	1.0000000000e+05	1.0939954617e+05
0.114204819      	1.0000000000e+05	1.0939954143e+05
0.115204819      	1.0000000000e+05	1.0939954583e+05
0.116204819      	1.0000000000e+05	1.0939954176e+05
0.117204819      	1.0000000000e+05	1.0939954553e+05
0.118204819      	1.0000000000e+05	1.0939954203e+05
0.119204819      	1.0000000000e+05	1.0939954528e+05
0.120204819      	1.0000000000e+05	1.0939954227e+05
0.121204819      	1.0000000000e+05	1.0939954506e+05
0.122204819      	1.0000000000e+05	1.0939954248e+05
0.123204819      	1.0000000000e+05	1.0939954488e+05
0.124204819      	1.0000000000e+05	1.0939954266e+05
0.125204819      	1.0000000000e+05	1.0939954472e+05
0.126204819      	1.0000000000e+05	1.0939954281e+05
0.127204819      	1.0000000000e+05	1.0939954458e+05
0.128204819      	1.0000000000e+05	1.0939954294e+05
0.129204819      	1.0000000000e+05	1.0939954446e+05
0.130204819      	1.0000000000e+05	1.0939954305e+05
0.131204819      	1.0000000000e+05	1.0939954436e+05
0.132204819      	1.0000000000e+05	1.0939954315e+05
0.133204819      	1.0000000000e+05	1.0939954427e+05
0.134204819      	1.0000000000e+05	1.0939954323e+05
0.135204819      	1.0000000000e+05	1.0939954420e+05
0.136204819      	1.0000000000e+05	1.0939954330e+05
0.137204819      	1.0000000000e+05	1.0939954413e+05
0.138204819      	1.0000000000e+05	1.0939954337e+05
0.139204819      	1.0000000000e+05	1.0939954408e+05
0.140204819      	1.0000000000e+05	1.0939954342e+05
0.141204819      	1.0000000000e+05	1.0939954402e+05
0.142204819      	1.0000000000e+05	1.0939954345e+05
0.143204819      	1.0000000000e+05	1.0939954397e+05
0.144204819      	1.0000000000e+05	1.0939954348e+05
0.145204819      	1.0000000000e+05	1.0939954393e+05
0.146204819      	1.0000000000e+05	1.0939954350e+05
0.147204819      	1.0000000000e+05	1.0939954388e+05
0.148204819      	1.0000000000e+05	1.0939954352e+05
0.149204819      	1.0000000000e+05	1.0939954385e+05
0.150204819      	1.0000000000e+05	1.0939954353e+05
0.151204819      	1.0000000000e+05	1.0939954382e+05
0.152204819      	1.0000000000e+05	1.0939954354e+05
0.153204819      	1.0000000000e+05	1.0939954379e+05
0.154204819      	1.0000000000e+05	1.0939954355e+05
0.155204819      	1.0000000000e+05	1.0939954376e+05
0.156204819      	1.0000000000e+05	1.0939954356e+05
0.157204819      	1.0000000000e+05	1.0939954374e+05
0.158204819      	1.0000000000e+05	1.0939954357e+05
0.159204819      	1.0000000000e+05	1.0939954373e+05
0.160204819      	1.0000000000e+05	1.0939954358e+05
0.161204819      	1.0000000000e+05	1.0939954372e+05
0.162204819      	1.0000000000e+05	1.0939954360e+05
0.163204819      	1.0000000000e+05	1.0939954371e+05
0.164204819      	1.0000000000e+05	1.0939954361e+05
0.165204819      	1.0000000000e+05	1.0939954371e+05
0.166204819      	1.0000000000e+05	1.0939954361e+05
0.167204819      	1.0000000000e+05	1.0939954370e+05
0.168204819      	1.0000000000e+05	1.0939954362e+05
0.169204819      	1.0000000000e+05	1.0939954369e+05
0.170204819      	1.0000000000e+05	1.0939954363e+05
0.171204819      	1.0000000000e+05	1.0939954369e+05
0.172204819      	1.0000000000e+05	1.0939954363e+05
0.173204819      	1.0000000000e+05	1.0939954369e+05
0.174204819      	1.0000000000e+05	1.0939954364e+05
0.175204819      	1.0000000000e+05	1.0939954368e+05
0.176204819      	1.0000000000e+05	1.0939954364e+05
0.177204819      	1.0000000000e+05	1.0939954368e+05
0.178204819      	1.0000000000e+05	1.0939954364e+05
0.179204819      	1.0000000000e+05	1.0939954368e+05
0.180204819      	1.0000000000e+05	1.0939954365e+05
0.181204819      	1.0000000000e+05	1.0939954368e+05
0.182204819      	1.0000000000e+05	1.0939954365e+05
0.183204819      	1.0000000000e+05	1.0939954368e+05
0.184204819      	1.0000000000e+05	1.0939954365e+05
0.185204819      	1.0000000000e+05	1.0939954367e+05
0.186204819      	1.0000000000e+05	1.0939954365e+05
0.187204819      	1.0000000000e+05	1.0939954367e+05
0.188204819      	1.0000000000e+05	1.0939954366e+05
0.189204819      	1.0000000000e+05	1.0939954367e+05
0.190204819      	1.0000000000e+05	1.0939954366e+05
0.191204819      	1.0000000000e+05	1.0939954367e+05
0.192204819      	1.0000000000e+05	1.0939954366e+05
0.193204819      	1.0000000000e+05	1.0939954367e+05
0.194204819      	1.0000000000e+05	1.0939954366e+05
0.195204819      	1.0000000000e+05	1.0939954367e+05
0.196204819      	1.0000000000e+05	1.0939954366e+05
0.197204819      	1.0000000000e+05	1.0939954367e+05
0.198204819      	1.0000000000e+05	1.0939954366e+05
0.199204819      	1.0000000000e+05	1.0939954367e+05
0.200204819      	1.0000000000e+05	1.0939954366e+05
0.201204819      	1.0000000000e+05	1.0939954367e+05
0.202204819      	1.0000000000e+05	1.0939954366e+05
0.203204819      	1.0000000000e+05	1.0939954367e+05
0.204204819      	1.0000000000e+05	1.0939954366e+05
0.205204819      	1.0000000000e+05	1.0939954367e+05
0.206204819      	1.0000000000e+05	1.0939954366e+05
0.207204819      	1.0000000000e+05	1.0939954367e+05
0.208204819      	1.0000000000e+05	1.0939954366e+05
0.209204819      	1.0000000000e+05	1.0939954367e+05
0.210204819      	1.0000000000e+05	1.0939954366e+05
0.211204819      	1.0000000000e+05	1.0939954366e+05
0.212204819      	1.0000000000e+05	1.0939954366e+05
0.213204819      	1.0000000000e+05	1.0939954366e+05
0.214204819      	1.0000000000e+05	1.0939954366e+05
0.215204819      	1.0000000000e+05	1.0939954366e+05
0.216204819      	1.0000000000e+05	1.0939954366e+05
0.217204819      	1.0000000000e+05	1.0939954366e+05
0.218204819      	1.0000000000e+05	1.0939954366e+05
0.219204819      	1.0000000000e+05	1.0939954366e+05
0.220204819      	1.0000000000e+05	1.0939954366e+05
0.221204819      	1.0000000000e+05	1.0939954366e+05
0.222204819      	1.0000000000e+05	1.0939954366e+05
0.223204819      	1.0000000000e+05	1.0939954366e+05
0.224204819      	1.0000000000e+05	1.0939954366e+05
0.225204819      	1.0000000000e+05	1.0939954366e+05
0.226204819      	1.0000000000e+05	1.0939954366e+05
0.227204819      	1.0000000000e+05	1.0939954366e+05
0.228204819      	1.0000000000e+05	1.0939954366e+05
0.229204819      	1.0000000000e+05	1.0939954366e+05
0.230204819      	1.0000000000e+05	1.0939954366e+05
0.231204819      	1.0000000000e+05	1.0939954366e+05
0.232204819      	1.0000000000e+05	1.0939954366e+05
0.233204819      	1.0000000000e+05	1.0939954366e+05
0.234204819      	1.0000000000e+05	1.0939954366e+05
0.235204819      	1.0000000000e+05	1.0939954366e+05
0.236204819      	1.0000000000e+05	1.0939954366e+05
0.237204819      	1.0000000000e+05	1.0939954366e+05
0.238204819      	1.0000000000e+05	1.0939954366e+05
0.239204819      	1.0000000000e+05	1.0939954366e+05
0.240204819      	1.0000000000e+05	1.0939954365e+05
0.241204819      	1.0000000000e+05	1.0939954365e+05
0.242204819      	1.0000000000e+05	1.0939954365e+05
0.243204819      	1.0000000000e+05	1.0939954365e+05
0.244204819      	1.0000000000e+05	1.0939954365e+05
0.245204819      	1.0000000000e+05	1.0939954365e+05
0.246204819      	1.0000000000e+05	1.0939954364e+05
0.247204819      	1.0000000000e+05	1.0939954363e+05
0.248204819      	1.0000000000e+05	1.0939954361e+05
0.249204819      	1.0000000000e+05	1.0939954360e+05
0.250204819      	1.0000000000e+05	1.0939954359e+05
0.251204819      	1.0000000000e+05	1.0939954358e+05
0.252204819      	1.0000000000e+05	1.0939954356e+05
0.253204819      	1.0000000000e+05	1.0939954355e+05
0.254204819      	1.0000000000e+05	1.0939954354e+05
0.255204819      	1.0000000000e+05	1.0939954353e+05
0.256204819      	1.0000000000e+05	1.0939954351e+05
0.257204819      	1.0000000000e+05	1.0939954350e+05
0.258204819      	1.0000000000e+05	1.0939954349e+05
0.259204819      	1.0000000000e+05	1.0939954348e+05
0.260204819      	1.0000000000e+05	1.0939954347e+05
0.261204819      	1.0000000000e+05	1.0939954345e+05
0.262204819      	1.0000000000e+05	1.0939954344e+05
0.263204819      	1.0000000000e+05	1.0939954343e+05
0.264204819      	1.0000000000e+05	1.0939954342e+05
0.265204819      	1.0000000000e+05	1.0939954341e+05
0.266204819      	1.0000000000e+05	1.0939954339e+05
0.267204819      	1.0000000000e+05	1.0939954338e+05
0.268204819      	1.0000000000e+05	1.0939954337e+05
0.269204819      	1.0000000000e+05	1.0939954336e+05
0.270204819      	1.0000000000e+05	1.0939954335e+05
0.271204819      	1.0000000000e+05	1.0939954334e+05
0.272204819      	1.0000000000e+05	1.0939954334e+05
0.273204819      	1.0000000000e+05	1.0939954334e+05
0.274204819      	1.0000000000e+05	1.0939954333e+05
0.275204819      	1.0000000000e+05	1.0939954333e+05
0.276204819      	1.0000000000e+05	1.0939954333e+05
0.277204819      	1.0000000000e+05	1.0939954333e+05
0.278204819      	1.0000000000e+05	1.0939954333e+05
0.279204819      	1.0000000000e+05	1.0939954333e+05
0.280204819      	1.0000000000e+05	1.0939954333e+05
0.281204819      	1.0000000000e+05	1.0939954333e+05
0.282204819      	1.0000000000e+05	1.0939954333e+05
0.283204819      	1.0000000000e+05	1.0939954333e+05
0.284204819      	1.0000000000e+05	1.0939954333e+05
0.285204819      	1.0000000000e+05	1.0939954333e+05
0.286204819      	1.0000000000e+05	1.0939954333e+05
0.287204819      	1.0000000000e+05	1.0939954333e+05
0.288204819      	1.0000000000e+05	1.0939954333e+05
0.289204819      	1.0000000000e+05	1.0939954333e+05
0.290204819      	1.0000000000e+05	1.0939954333e+05
0.291204819      	1.0000000000e+05	1.0939954333e+05
0.292204819      	1.0000000000e+05	1.0939954333e+05
0.293204819      	1.0000000000e+05	1.0939954333e+05
0.294204819      	1.0000000000e+05	1.0939954333e+05
0.295204819      	1.0000000000e+05	1.0939954333e+05
0.296204819      	1.0000000000e+05	1.0939954333e+05
0.297204819      	1.0000000000e+05	1.0939954333e+05
0.298204819      	1.0000000000e+05	1.0939954332e+05
0.299204819      	1.0000000000e+05	1.0939954332e+05
0.300204819      	1.0000000000e+05	1.0939954332e+05
0.301204819      	1.0000000000e+05	1.0939954332e+05
0.302204819      	1.0000000000e+05	1.0939954332e+05
0.303204819      	1.0000000000e+05	1.0939954332e+05
0.304204819      	1.0000000000e+05	1.0939954332e+05
0.305204819      	1.0000000000e+05	1.0939954332e+05
0.306204819      	1.0000000000e+05	1.0939954332e+05
0.307204819      	1.0000000000e+05	1.0939954332e+05
0.308204819      	1.0000000000e+05	1.0939954332e+05
0.309204819      	1.0000000000e+05	1.0939954332e+05
0.310204819      	1.0000000000e+05	1.0939954332e+05
0.311204819      	1.0000000000e+05	1.0939954332e+05
0.312204819      	1.0000000000e+05	1.0939954332e+05
0.313204819      	1.0000000000e+05	1.0939954332e+05
0.314204819      	1.0000000000e+05	1.0939954332e+05
0.315204819      	1.0000000000e+05	1.0939954332e+05
0.316204819      	1.0000000000e+05	1.0939954332e+05
0.317204819      	1.0000000000e+05	1.0939954332e+05
0.318204819      	1.0000000000e+05	1.0939954332e+05
0.319204819      	1.0000000000e+05	1.0939954331e+05
0.320204819      	1.0000000000e+05	1.0939954331e+05
0.321204819      	1.0000000000e+05	1.0939954331e+05
0.322204819      	1.0000000000e+05	1.0939954331e+05
0.323204819      	1.0000000000e+05	1.0939954331e+05
0.324204819      	1.0000000000e+05	1.0939954331e+05
0.325204819      	1.0000000000e+05	1.0939954331e+05
0.326204819      	1.0000000000e+05	1.0939954331e+05
0.327204819      	1.0000000000e+05	1.0939954331e+05
0.328204819      	1.0000000000e+05	1.0939954331e+05
0.329204819      	1.0000000000e+05	1.0939954331e+05
0.330204819      	1.0000000000e+05	1.0939954331e+05
0.331204819      	1.0000000000e+05	1.0939954331e+05
0.332204819      	1.0000000000e+05	1.0939954331e+05
0.333204819      	1.0000000000e+05	1.0939954331e+05
0.334204819      	1.0000000000e+05	1.0939954331e+05
0.335204819      	1.0000000000e+05	1.0939954331e+05
0.336204819      	1.0000000000e+05	1.0939954331e+05
0.337204819      	1.0000000000e+05	1.0939954330e+05
0.338204819      	1.0000000000e+05	1.0939954330e+05
0.339204819      	1.0000000000e+05	1.0939954330e+05
0.340204819      	1.0000000000e+05	1.0939954330e+05
0.341204819      	1.0000000000e+05	1.0939954330e+05
0.342204819      	1.0000000000e+05	1.0939954330e+05
0.343204819      	1.0000000000e+05	1.0939954330e+05
0.344204819      	1.0000000000e+05	1.0939954330e+05
0.345204819      	1.0000000000e+05	1.0939954330e+05
0.346204819      	1.0000000000e+05	1.0939954330e+05
0.347204819      	1.0000000000e+05	1.0939954330e+05
0.348204819      	1.0000000000e+05	1.0939954330e+05
0.349204819      	1.0000000000e+05	1.0939954330e+05
0.350204819      	1.0000000000e+05	1.0939954330e+05
0.351204819      	1.0000000000e+05	1.0939954330e+05
0.352204819      	1.0000000000e+05	1.0939954330e+05
0.353204819      	1.0000000000e+05	1.0939954329e+05
0.354204819      	1.0000000000e+05	1.0939954329e+05
0.355204819      	1.0000000000e+05	1.0939954329e+05
0.356204819      	1.0000000000e+05	1.0939954329e+05
0.357204819      	1.0000000000e+05	1.0939954329e+05
0.358204819      	1.0000000000e+05	1.0939954329e+05
0.359204819      	1.0000000000e+05	1.0939954329e+05
0.360204819      	1.0000000000e+05	1.0939954329e+05
0.361204819      	1.0000000000e+05	1.0939954329e+05
0.362204819      	1.0000000000e+05	1.0939954329e+05
0.363204819      	1.0000000000e+05	1.0939954329e+05
0.364204819      	1.0000000000e+05	1.0939954329e+05
0.365204819      	1.0000000000e+05	1.0939954329e+05
0.366204819      	1.0000000000e+05	1.0939954329e+05
0.367204819      	1.0000000000e+05	1.0939954329e+05
0.368204819      	1.0000000000e+05	1.0939954329e+05
0.369204819      	1.0000000000e+05	1.0939954329e+05
0.370204819      	1.0000000000e+05	1.0939954329e+05
0.371204819      	1.0000000000e+05	1.0939954328e+05
0.372204819      	1.0000000000e+05	1.0939954328e+05
0.373204819      	1.0000000000e+05	1.0939954328e+05
0.374204819      	1.0000000000e+05	1.0939954328e+05
0.375204819      	1.0000000000e+05	1.0939954328e+05
0.376204819      	1.0000000000e+05	1.0939954328e+05
0.377204819      	1.0000000000e+05	1.0939954328e+05
0.378204819      	1.0000000000e+05	1.0939954328e+05
0.379204819      	1.0000000000e+05	1.0939954328e+05
0.380204819      	1.0000000000e+05	1.0939954328e+05
0.381204819      	1.0000000000e+05	1.0939954328e+05
0.382204819      	1.0000000000e+05	1.0939954328e+05
0.383204819      	1.0000000000e+05	1.0939954328e+05
0.384204819      	1.0000000000e+05	1.0939954328e+05
0.385204819      	1.0000000000e+05	1.0939954328e+05
0.386204819      	1.0000000000e+05	1.0939954328e+05
0.387204819      	1.0000000000e+05	1.0939954328e+05
0.388204819      	1.0000000000e+05	1.0939954328e+05
0.389204819      	1.0000000000e+05	1.0939954328e+05
0.390204819      	1.0000000000e+05	1.0939954328e+05
0.391204819      	1.0000000000e+05	1.0939954327e+05
0.392204819      	1.0000000000e+05	1.0939954327e+05
0.393204819      	1.0000000000e+05	1.0939954327e+05
0.394204819      	1.0000000000e+05	1.0939954327e+05
0.395204819      	1.0000000000e+05	1.0939954327e+05
0.396204819      	1.0000000000e+05	1.0939954327e+05
0.397204819      	1.0000000000e+05	1.0939954327e+05
0.398204819      	1.0000000000e+05	1.0939954327e+05
0.399204819      	1.0000000000e+05	1.0939954327e+05
0.400204819      	1.0000000000e+05	1.0939954327e+05
0.401204819      	1.0000000000e+05	1.0939954327e+05
0.402204819      	1.0000000000e+05	1.0939954327e+05
0.403204819      	1.0000000000e+05	1.0939954327e+05
0.404204819      	1.0000000000e+05	1.0939954327e+05
0.405204819      	1.0000000000e+05	1.0939954327e+05
0.406204819      	1.0000000000e+05	1.0939954327e+05
0.407204819      	1.0000000000e+05	1.0939954327e+05
0.408204819      	1.0000000000e+05	1.0939954327e+05
0.409204819      	1.0000000000e+05	1.0939954327e+05
0.410204819      	1.0000000000e+05	1.0939954327e+05
0.411204819      	1.0000000000e+05	1.0939954326e+05
0.412204819      	1.0000000000e+05	1.0939954326e+05
0.413204819      	1.0000000000e+05	1.0939954326e+05
0.414204819      	1.0000000000e+05	1.0939954326e+05
0.415204819      	1.0000000000e+05	1.0939954326e+05
0.416204819      	1.0000000000e+05	1.0939954326e+05
0.417204819      	1.0000000000e+05	1.0939954326e+05
0.418204819      	1.0000000000e+05	1.0939954326e+05
0.419204819      	1.0000000000e+05	1.0939954326e+05
0.420204819      	1.0000000000e+05	1.0939954326e+05
0.421204819      	1.0000000000e+05	1.0939954326e+05
0.422204819      	1.0000000000e+05	1.0939954326e+05
0.423204819      	1.0000000000e+05	1.0939954326e+05
0.424204819      	1.0000000000e+05	1.0939954326e+05
0.425204819      	1.0000000000e+05	1.0939954326e+05
0.426204819      	1.0000000000e+05	1.0939954326e+05
0.427204819      	1.0000000000e+05	1.0939954326e+05
0.428204819      	1.0000000000e+05	1.0939954325e+05
0.429204819      	1.0000000000e+05	1.0939954325e+05
0.430204819      	1.0000000000e+05	1.0939954325e+05
0.431204819      	1.0000000000e+05	1.0939954325e+05
0.432204819      	1.0000000000e+05	1.0939954325e+05
0.433204819      	1.0000000000e+05	1.0939954325e+05
0.434204819      	1.0000000000e+05	1.0939954325e+05
0.435204819      	1.0000000000e+05	1.0939954325e+05
0.436204819      	1.0000000000e+05	1.0939954325e+05
0.437204819      	1.0000000000e+05	1.0939954325e+05
0.438204819      	1.0000000000e+05	1.0939954325e+05
0.439204819      	1.0000000000e+05	1.0939954325e+05
0.440204819      	1.0000000000e+05	1.0939954325e+05
0.441204819      	1.0000000000e+05	1.0939954325e+05
0.442204819      	1.0000000000e+05	1.0939954325e+05
0.443204819      	1.0000000000e+05	1.0939954324e+05
0.444204819      	1.0000000000e+05	1.0939954324e+05
0.445204819      	1.0000000000e+05	1.0939954324e+05
0.446204819      	1.0000000000e+05	1.0939954324e+05
0.447204819      	1.0000000000e+05	1.0939954324e+05
0.448204819      	1.0000000000e+05	1.0939954324e+05
0.449204819      	1.0000000000e+05	1.0939954324e+05
0.450204819      	1.0000000000e+05	1.0939954324e+05
0.451204819      	1.0000000000e+05	1.0939954324e+05
0.452204819      	1.0000000000e+05	1.0939954324e+05
0.453204819      	1.0000000000e+05	1.0939954324e+05
0.454204819      	1.0000000000e+05	1.0939954324e+05
0.455204819      	1.0000000000e+05	1.0939954324e+05
0.456204819      	1.0000000000e+05	1.0939954323e+05
0.457204819      	1.0000000000e+05	1.0939954323e+05
0.458204819      	1.0000000000e+05	1.0939954323e+05
0.459204819      	1.0000000000e+05	1.0939954323e+05
0.460204819      	1.0000000000e+05	1.0939954323e+05
0.461204819      	1.0000000000e+05	1.0939954323e+05
0.462204819      	1.0000000000e+05	1.0939954323e+05
0.463204819      	1.0000000000e+05	1.0939954323e+05
0.464204819      	1.0000000000e+05	1.0939954323e+05
0.465204819      	1.0000000000e+05	1.0939954323e+05
0.466204819      	1.0000000000e+05	1.0939954323e+05
0.467204819      	1.0000000000e+05	1.0939954323e+05
0.468204819      	1.0000000000e+05	1.0939954323e+05
0.469204819      	1.0000000000e+05	1.0939954322e+05
0.470204819      	1.0000000000e+05	1.0939954322e+05
0.471204819      	1.0000000000e+05	1.0939954322e+05
0.472204819      	1.0000000000e+05	1.0939954322e+05
0.473204819      	1.0000000000e+05	1.0939954322e+05
0.474204819      	1.0000000000e+05	1.0939954322e+05
0.475204819      	1.0000000000e+05	1.0939954322e+05
0.476204819      	1.0000000000e+05	1.0939954322e+05
0.477204819      	1.0000000000e+05	1.0939954322e+05
0.478204819      	1.0000000000e+05	1.0939954322e+05
0.479204819      	1.0000000000e+05	1.0939954322e+05
0.480204819      	1.0000000000e+05	1.0939954322e+05
0.481204819      	1.0000000000e+05	1.0939954321e+05
0.482204819      	1.0000000000e+05	1.0939954321e+05
0.483204819      	1.0000000000e+05	1.0939954321e+05
0.484204819      	1.0000000000e+05	1.0939954321e+05
0.485204819      	1.0000000000e+05	1.0939954321e+05
0.486204819      	1.0000000000e+05	1.0939954321e+05
0.487204819      	1.0000000000e+05	1.0939954321e+05
0.488204819      	1.0000000000e+05	1.0939954321e+05
0.489204819      	1.0000000000e+05	1.0939954321e+05
0.490204819      	1.0000000000e+05	1.0939954321e+05
0.491204819      	1.0000000000e+05	1.0939954321e+05
0.492204819      	1.0000000000e+05	1.0939954320e+05
0.493204819      	1.0000000000e+05	1.0939954320e+05
0.494204819      	1.0000000000e+05	1.0939954320e+05
0.495204819      	1.0000000000e+05	1.0939954320e+05
0.496204819      	1.0000000000e+05	1.0939954320e+05
0.497204819      	1.0000000000e+05	1.0939954320e+05
0.498204819      	1.0000000000e+05	1.0939954320e+05
0.499204819      	1.0000000000e+05	1.0939954320e+05
0.500204819      	1.0000000000e+05	1.0939954320e+05
0.501204819      	1.0000000000e+05	1.0939954320e+05
0.502204819      	1.0000000000e+05	1.0939954319e+05
0.503204819      	1.0000000000e+05	1.0939954319e+05
0.504204819      	1.0000000000e+05	1.0939954319e+05
0.505204819      	1.0000000000e+05	1.0939954319e+05
0.506204819      	1.0000000000e+05	1.0939954319e+05
0.507204819      	1.0000000000e+05	1.0939954319e+05
0.508204819      	1.0000000000e+05	1.0939954319e+05
0.509204819      	1.0000000000e+05	1.0939954319e+05
0.510204819      	1.0000000000e+05	1.0939954319e+05
0.511204819      	1.0000000000e+05	1.0939954319e+05
0.512204819      	1.0000000000e+05	1.0939954318e+05
0.513204819      	1.0000000000e+05	1.0939954318e+05
0.514204819      	1.0000000000e+05	1.0939954318e+05
0.515204819      	1.0000000000e+05	1.0939954318e+05
0.516204819      	1.0000000000e+05	1.0939954318e+05
0.517204819      	1.0000000000e+05	1.0939954318e+05
0.518204819      	1.0000000000e+05	1.0939954318e+05
0.519204819      	1.0000000000e+05	1.0939954318e+05
0.520204819      	1.0000000000e+05	1.0939954318e+05
0.521204819      	1.0000000000e+05	1.0939954317e+05
0.522204819      	1.0000000000e+05	1.0939954317e+05
0.523204819      	1.0000000000e+05	1.0939954317e+05
0.524204819      	1.0000000000e+05	1.0939954317e+05
0.525204819      	1.0000000000e+05	1.0939954317e+05
0.526204819      	1.0000000000e+05	1.0939954317e+05
0.527204819      	1.0000000000e+05	1.0939954317e+05
0.528204819      	1.0000000000e+05	1.0939954317e+05
0.529204819      	1.0000000000e+05	1.0939954317e+05
0.530204819      	1.0000000000e+05	1.0939954317e+05
0.531204819      	1.0000000000e+05	1.0939954316e+05
0.532204819      	1.0000000000e+05	1.0939954316e+05
0.533204819      	1.0000000000e+05	1.0939954316e+05
0.534204819      	1.0000000000e+05	1.0939954316e+05
0.535204819      	1.0000000000e+05	1.0939954316e+05
0.536204819      	1.0000000000e+05	1.0939954316e+05
0.537204819      	1.0000000000e+05	1.0939954316e+05
0.538204819      	1.0000000000e+05	1.0939954316e+05
0.539204819      	1.0000000000e+05	1.0939954316e+05
0.540204819      	1.0000000000e+05	1.0939954315e+05
0.541204819      	1.0000000000e+05	1.0939954315e+05
0.542204819      	1.0000000000e+05	1.0939954315e+05
0.543204819      	1.0000000000e+05	1.0939954315e+05
0.544204819      	1.0000000000e+05	1.0939954315e+05
0.545204819      	1.0000000000e+05	1.0939954315e+05
0.546204819      	1.0000000000e+05	1.0939954315e+05
0.547204819      	1.0000000000e+05	1.0939954315e+05
0.548204819      	1.0000000000e+05	1.0939954315e+05
0.549204819      	1.0000000000e+05	1.0939954314e+05
0.550204819      	1.0000000000e+05	1.0939954314e+05
0.551204819      	1.0000000000e+05	1.0939954314e+05
0.552204819      	1.0000000000e+05	1.0939954314e+05
0.553204819      	1.0000000000e+05	1.0939954314e+05
0.554204819      	1.0000000000e+05	1.0939954314e+05
0.555204819      	1.0000000000e+05	1.0939954314e+05
0.556204819      	1.0000000000e+05	1.0939954314e+05
0.557204819      	1.0000000000e+05	1.0939954313e+05
0.558204819      	1.0000000000e+05	1.0939954313e+05
0.559204819      	1.0000000000e+05	1.0939954313e+05
0.560204819      	1.0000000000e+05	1.0939954313e+05
0.561204819      	1.0000000000e+05	1.0939954313e+05
0.562204819      	1.0000000000e+05	1.0939954313e+05
0.563204819      	1.0000000000e+05	1.0939954313e+05
0.564204819      	1.0000000000e+05	1.0939954313e+05
0.565204819      	1.0000000000e+05	1.0939954312e+05
0.566204819      	1.0000000000e+05	1.0939954312e+05
0.567204819      	1.0000000000e+05	1.0939954312e+05
0.568204819      	1.0000000000e+05	1.0939954312e+05
0.569204819      	1.0000000000e+05	1.0939954312e+05
0.570204819      	1.0000000000e+05	1.0939954312e+05
0.571204819      	1.0000000000e+05	1.0939954312e+05
0.572204819      	1.0000000000e+05	1.0939954312e+05
0.573204819      	1.0000000000e+05	1.0939954311e+05
0.574204819      	1.0000000000e+05	1.0939954311e+05
0.575204819      	1.0000000000e+05	1.0939954311e+05