# p  FACE_DATA 148
#  x  y  z  p
0 -16.4403 -6.39012 884481
0 -15.7094 -6.55845 881258
0 -14.9786 -6.72678 878089
0 -14.2477 -6.89511 875369
0 -13.5168 -7.06344 876835
0 -12.786 -7.23177 883942
0 -12.0551 -7.4001 894674
0 -11.3243 -7.56843 902924
0 -10.5934 -7.73676 909037
0 -9.86252 -7.90509 921162
0 -9.13165 -8.07342 934218
0 -8.40079 -8.24175 947043
0 -7.66992 -8.41008 962629
0 -6.93906 -8.57841 979443
0 -6.20819 -8.74674 996158
0 -5.47732 -8.91507 1.013e+06
0 -4.74646 -9.0834 1.03072e+06
0 -4.01559 -9.25173 1.04744e+06
0 -3.28473 -9.42006 1.06339e+06
0 -2.55386 -9.58839 1.08046e+06
0 -1.82299 -9.75672 1.09882e+06
0 -1.09213 -9.92505 1.11765e+06
0 -0.361263 -10.0934 1.13679e+06
0 0.369603 -10.2617 1.157e+06
0 1.10047 -10.43 1.1772e+06
0 1.83133 -10.5984 1.19354e+06
0 2.5622 -10.7667 1.20672e+06
0 3.29307 -10.935 1.22247e+06
0 4.02393 -11.1034 1.23949e+06
0 4.7548 -11.2717 1.25617e+06
0 5.48566 -11.44 1.27411e+06
0 6.21653 -11.6084 1.27316e+06
0 6.9474 -11.7767 1.28072e+06
0 7.67826 -11.945 1.29069e+06
0 8.40913 -12.1133 1.29877e+06
0 9.13999 -12.2817 1.30404e+06
0 9.87086 -12.45 1.30836e+06
0 10.6017 -12.6183 1.31076e+06
0 11.3326 -12.7867 1.30917e+06
0 12.0635 -12.955 1.30425e+06
0 12.9284 -12.7266 1.30251e+06
0 13.9276 -12.1016 1.23482e+06
0 14.9267 -11.4766 1.19886e+06
0 15.9258 -10.8515 1.16087e+06
0 16.9249 -10.2265 1.1425e+06
0 17.924 -9.60144 1.09098e+06
0 18.5287 -8.83212 1.08712e+06
0 18.7391 -7.91854 1.08588e+06
0 18.9496 -7.00496 1.08405e+06
0 19.16 -6.09138 1.08289e+06
0 19.3704 -5.1778 1.08204e+06
0 19.5808 -4.26421 1.0808e+06
0 19.7912 -3.35063 1.07768e+06
0 20.0016 -2.43705 1.07363e+06
0 20.212 -1.52347 1.07253e+06
0 20.4224 -0.609883 1.07071e+06
0 20.6329 0.303699 1.06775e+06
0 20.8433 1.21728 1.06502e+06
0 21.0537 2.13086 1.0619e+06
0 21.2641 3.04445 1.05547e+06
0 21.4745 3.95803 1.03415e+06
0 21.6849 4.87161 1.01026e+06
0 21.4776 5.82796 1.00419e+06
0 20.8526 6.82706 1.00164e+06
0 20.2275 7.82617 1.00061e+06
0 19.6025 8.82528 999946
0 18.9775 9.82438 999728
0 18.3524 10.8235 1.00028e+06
0 17.7274 11.8226 1.00127e+06
0 17.1023 12.8217 1.00204e+06
0 16.4773 13.8208 1.00228e+06
0 15.8523 14.8199 1.00202e+06
0 15.2272 15.819 1.00168e+06
0 14.6022 16.8181 1.00103e+06
0 -4.95648 21.7504 989296
0 -4.46924 21.6382 989429
0 -3.982 21.5259 989391
0 -3.49475 21.4137 989365
0 -3.00751 21.3015 989349
0 -2.52026 21.1893 989466
0 -2.03302 21.0771 989676
0 -1.54578 20.9648 989964
0 -1.05853 20.8526 990274
0 -0.571289 20.7404 990671
0 -0.0840446 20.6282 991223
0 0.403199 20.516 991888
0 0.890443 20.4037 992256
0 1.37769 20.2915 992481
0 1.86493 20.1793 992765
0 2.35218 20.0671 993151
0 2.83942 19.9549 993660
0 3.32666 19.8426 994135
0 3.81391 19.7304 994507
0 4.30115 19.6182 994861
0 4.78839 19.506 995211
0 5.27564 19.3938 995570
0 5.76288 19.2815 995951
0 6.25013 19.1693 996329
0 6.73737 19.0571 996712
0 7.22461 18.9449 997105
0 7.71186 18.8327 997491
0 8.1991 18.7204 997881
0 8.68635 18.6082 998155
0 9.17359 18.496 998395
0 9.66083 18.3838 998622
0 10.1481 18.2716 998813
0 10.6353 18.1593 998925
0 11.1226 18.0471 999007
0 11.6098 17.9349 999929
0 12.0971 17.8227 1.00024e+06
0 12.5843 17.7105 1.0004e+06
0 13.0715 17.5982 1.00056e+06
0 13.5588 17.486 1.00065e+06
0 14.046 17.3738 1.00097e+06
0 -16.6898 14.6185 984433
0 -15.6907 15.2436 984785
0 -14.6916 15.8686 985082
0 -13.6925 16.4936 985358
0 -12.6934 17.1187 985624
0 -11.6943 17.7437 985881
0 -10.6952 18.3688 986144
0 -9.69609 18.9938 986342
0 -8.69698 19.6188 986531
0 -7.69787 20.2439 987005
0 -6.69877 20.8689 988071
0 -5.69966 21.494 989331
0 -20.4508 0.145476 958245
0 -20.2404 1.05906 971090
0 -20.03 1.97264 984210
0 -19.8195 2.88622 981590
0 -19.6091 3.79981 980968
0 -19.3987 4.71339 980431
0 -19.1883 5.62697 979944
0 -18.9779 6.54055 980917
0 -18.7675 7.45414 981025
0 -18.5571 8.36772 981315
0 -18.3467 9.2813 981763
0 -18.1362 10.1949 982268
0 -17.9258 11.1085 982795
0 -17.7154 12.022 983250
0 -17.505 12.9356 983667
0 -17.2946 13.8492 984063
0 -17.1183 -5.8064 883226
0 -17.7433 -4.8073 901050
0 -18.3683 -3.80819 916373
0 -18.9934 -2.80908 915736
0 -19.6184 -1.80998 929613
0 -20.2435 -0.810869 949369
