# p  FACE_DATA 148
#  x  y  z  p
0 -12.9825 -11.9551 1.3554e+06
0 -12.2406 -11.8447 1.33526e+06
0 -11.4988 -11.7342 1.32031e+06
0 -10.757 -11.6238 1.30395e+06
0 -10.0152 -11.5133 1.2878e+06
0 -9.27336 -11.4028 1.27166e+06
0 -8.53154 -11.2924 1.25417e+06
0 -7.78972 -11.1819 1.23469e+06
0 -7.0479 -11.0714 1.21646e+06
0 -6.30608 -10.961 1.19723e+06
0 -5.56426 -10.8505 1.17319e+06
0 -4.82244 -10.74 1.14971e+06
0 -4.08062 -10.6296 1.12741e+06
0 -3.3388 -10.5191 1.10517e+06
0 -2.59698 -10.4086 1.0829e+06
0 -1.85516 -10.2982 1.06413e+06
0 -1.11334 -10.1877 1.04795e+06
0 -0.371517 -10.0772 1.02947e+06
0 0.370304 -9.96678 999906
0 1.11212 -9.85632 968112
0 1.85394 -9.74585 939199
0 2.59576 -9.63539 913035
0 3.33759 -9.52492 890081
0 4.07941 -9.41446 869310
0 4.82123 -9.30399 856874
0 5.56305 -9.19353 848061
0 6.30487 -9.08306 836178
0 7.04669 -8.9726 825482
0 7.78851 -8.86213 819127
0 8.53033 -8.75167 817407
0 9.27215 -8.6412 817364
0 10.014 -8.53074 816253
0 10.7558 -8.42028 814471
0 11.4976 -8.30981 814573
0 12.2394 -8.19935 818483
0 12.9813 -8.08888 823139
0 13.7231 -7.97842 825698
0 14.4649 -7.86795 828828
0 15.2067 -7.75749 838013
0 15.9485 -7.64702 851601
0 16.6702 -7.1183 846956
0 17.3717 -6.17132 856477
0 18.0732 -5.22433 860855
0 18.7747 -4.27735 870018
0 19.4762 -3.33037 903732
0 20.1777 -2.38338 963940
0 20.4594 -1.44625 964462
0 20.3214 -0.518977 959822
0 20.1833 0.408299 954856
0 20.0452 1.33557 951390
0 19.9071 2.26285 937572
0 19.769 3.19013 927940
0 19.631 4.1174 921055
0 19.4929 5.04468 918226
0 19.3548 5.97195 921704
0 19.2167 6.89923 933056
0 19.0786 7.8265 946796
0 18.9406 8.75378 957339
0 18.8025 9.68105 960820
0 18.6644 10.6083 973458
0 18.5263 11.5356 980213
0 18.3882 12.4629 975338
0 17.8457 13.2773 961411
0 16.8987 13.9788 963295
0 15.9517 14.6803 965977
0 15.0047 15.3818 968142
0 14.0578 16.0833 968399
0 13.1108 16.7848 968567
0 12.1638 17.4863 969440
0 11.2168 18.1878 970180
0 10.2698 18.8893 970905
0 9.32285 19.5908 971805
0 8.37586 20.2923 972880
0 7.42888 20.9938 974155
0 -12.5792 18.4357 983320
0 -12.0847 18.5093 983727
0 -11.5901 18.583 982988
0 -11.0956 18.6566 980251
0 -10.601 18.7303 981378
0 -10.1065 18.8039 982068
0 -9.61194 18.8776 981899
0 -9.11739 18.9512 981647
0 -8.62284 19.0248 981379
0 -8.12829 19.0985 980330
0 -7.63375 19.1721 979572
0 -7.1392 19.2458 979377
0 -6.64465 19.3194 979166
0 -6.15011 19.3931 978861
0 -5.65556 19.4667 978565
0 -5.16101 19.5403 978370
0 -4.66647 19.614 978225
0 -4.17192 19.6876 978120
0 -3.67737 19.7613 978048
0 -3.18282 19.8349 978002
0 -2.68828 19.9086 977962
0 -2.19373 19.9822 977899
0 -1.69918 20.0558 977792
0 -1.20464 20.1295 977633
0 -0.71009 20.2031 977419
0 -0.215543 20.2768 977176
0 0.279004 20.3504 976956
0 0.773551 20.4241 976713
0 1.2681 20.4977 976467
0 1.76264 20.5713 976226
0 2.25719 20.645 975986
0 2.75174 20.7186 975741
0 3.24629 20.7923 975501
0 3.74083 20.8659 975308
0 4.23538 20.9396 975156
0 4.72993 21.0132 974974
0 5.22447 21.0868 974797
0 5.71902 21.1605 974618
0 6.21357 21.2341 974365
0 6.70811 21.3078 974089
0 -20.8938 7.50856 999440
0 -20.1923 8.45555 992310
0 -19.4908 9.40253 991201
0 -18.7893 10.3495 990409
0 -18.0878 11.2965 986691
0 -17.3863 12.2435 986462
0 -16.6848 13.1905 985365
0 -15.9833 14.1374 983760
0 -15.2818 15.0844 984444
0 -14.5803 16.0314 984728
0 -13.8788 16.9784 984010
0 -13.1772 17.9254 983377
0 -19.1043 -7.3377 1.16083e+06
0 -19.2424 -6.41042 1.13858e+06
0 -19.3805 -5.48315 1.13574e+06
0 -19.5186 -4.55587 1.13295e+06
0 -19.6566 -3.6286 1.13011e+06
0 -19.7947 -2.70132 1.12409e+06
0 -19.9328 -1.77405 1.11498e+06
0 -20.0709 -0.846771 1.10925e+06
0 -20.209 0.0805044 1.1132e+06
0 -20.347 1.00778 1.11034e+06
0 -20.4851 1.93506 1.09029e+06
0 -20.6232 2.86233 1.06884e+06
0 -20.7613 3.78961 1.05541e+06
0 -20.8994 4.71688 1.04413e+06
0 -21.0374 5.64416 1.03158e+06
0 -21.1755 6.57143 1.01471e+06
0 -13.8269 -11.6596 1.35242e+06
0 -14.7738 -10.9581 1.31939e+06
0 -15.7208 -10.2566 1.27988e+06
0 -16.6678 -9.5551 1.24497e+06
0 -17.6148 -8.8536 1.21342e+06
0 -18.5618 -8.15209 1.18405e+06
