# p  FACE_DATA 148
#  x  y  z  p
0 -15.0888 -9.41946 1.10184e+06
0 -14.3397 -9.45629 1.08923e+06
0 -13.5906 -9.49312 1.08308e+06
0 -12.8415 -9.52995 1.07783e+06
0 -12.0924 -9.56678 1.07119e+06
0 -11.3433 -9.60362 1.06389e+06
0 -10.5942 -9.64045 1.05776e+06
0 -9.84515 -9.67728 1.0535e+06
0 -9.09605 -9.71411 1.05045e+06
0 -8.34696 -9.75094 1.0478e+06
0 -7.59786 -9.78777 1.04563e+06
0 -6.84877 -9.8246 1.04419e+06
0 -6.09967 -9.86143 1.04333e+06
0 -5.35058 -9.89826 1.04284e+06
0 -4.60148 -9.93509 1.04264e+06
0 -3.85239 -9.97192 1.04261e+06
0 -3.10329 -10.0088 1.04262e+06
0 -2.3542 -10.0456 1.04277e+06
0 -1.6051 -10.0824 1.04335e+06
0 -0.856008 -10.1192 1.04453e+06
0 -0.106913 -10.1561 1.04639e+06
0 0.642182 -10.1929 1.04879e+06
0 1.39128 -10.2297 1.05171e+06
0 2.14037 -10.2666 1.05457e+06
0 2.88947 -10.3034 1.05746e+06
0 3.63856 -10.3402 1.06066e+06
0 4.38766 -10.3771 1.06422e+06
0 5.13675 -10.4139 1.06819e+06
0 5.88585 -10.4507 1.07265e+06
0 6.63494 -10.4875 1.07759e+06
0 7.38404 -10.5244 1.08304e+06
0 8.13313 -10.5612 1.08901e+06
0 8.88223 -10.598 1.09558e+06
0 9.63132 -10.6349 1.10273e+06
0 10.3804 -10.6717 1.11052e+06
0 11.1295 -10.7085 1.11875e+06
0 11.8786 -10.7454 1.1274e+06
0 12.6277 -10.7822 1.13684e+06
0 13.3768 -10.819 1.14605e+06
0 14.1259 -10.8559 1.15495e+06
0 14.9371 -10.4786 1.15115e+06
0 15.8103 -9.68716 1.1533e+06
0 16.6836 -8.89575 1.13508e+06
0 17.5568 -8.10435 1.12021e+06
0 18.4301 -7.31294 1.11291e+06
0 19.3033 -6.52154 1.10709e+06
0 19.763 -5.65765 1.10097e+06
0 19.809 -4.72128 1.07957e+06
0 19.855 -3.78491 1.05474e+06
0 19.9011 -2.84854 1.03441e+06
0 19.9471 -1.91218 1.01842e+06
0 19.9932 -0.975807 1.00746e+06
0 20.0392 -0.0394376 1.00575e+06
0 20.0852 0.896931 1.00556e+06
0 20.1313 1.8333 1.0054e+06
0 20.1773 2.76967 1.00524e+06
0 20.2233 3.70604 1.00509e+06
0 20.2694 4.64241 1.00497e+06
0 20.3154 5.57878 1.00488e+06
0 20.3615 6.51514 1.00482e+06
0 20.4075 7.45151 1.00478e+06
0 20.4535 8.38788 1.00476e+06
0 20.0809 9.29269 1.00472e+06
0 19.2894 10.1659 1.00436e+06
0 18.498 11.0392 1.004e+06
0 17.7066 11.9124 1.00373e+06
0 16.9152 12.7857 1.00353e+06
0 16.1238 13.6589 1.00337e+06
0 15.3324 14.5322 1.00324e+06
0 14.541 15.4054 1.00314e+06
0 13.7496 16.2787 1.00305e+06
0 12.9582 17.1519 1.003e+06
0 12.1668 18.0252 1.00296e+06
0 11.3754 18.8984 1.00296e+06
0 -8.74648 20.3049 1.00243e+06
0 -8.24708 20.2804 1.00239e+06
0 -7.74768 20.2558 1.00236e+06
0 -7.24829 20.2313 1.00232e+06
0 -6.74889 20.2067 1.00228e+06
0 -6.24949 20.1822 1.00224e+06
0 -5.7501 20.1576 1.0022e+06
0 -5.2507 20.1331 1.00215e+06
0 -4.7513 20.1085 1.0021e+06
0 -4.25191 20.084 1.00206e+06
0 -3.75251 20.0594 1.00202e+06
0 -3.25311 20.0349 1.00198e+06
0 -2.75372 20.0103 1.00195e+06
0 -2.25432 19.9857 1.00192e+06
0 -1.75492 19.9612 1.0019e+06
0 -1.25553 19.9366 1.00189e+06
0 -0.75613 19.9121 1.00188e+06
0 -0.256734 19.8875 1.00187e+06
0 0.242663 19.863 1.00186e+06
0 0.74206 19.8384 1.00186e+06
0 1.24146 19.8139 1.00187e+06
0 1.74085 19.7893 1.00188e+06
0 2.24025 19.7648 1.0019e+06
0 2.73965 19.7402 1.00193e+06
0 3.23904 19.7157 1.00197e+06
0 3.73844 19.6911 1.00201e+06
0 4.23784 19.6665 1.00205e+06
0 4.73723 19.642 1.0021e+06
0 5.23663 19.6174 1.00215e+06
0 5.73603 19.5929 1.0022e+06
0 6.23542 19.5683 1.00227e+06
0 6.73482 19.5438 1.00234e+06
0 7.23422 19.5192 1.00242e+06
0 7.73361 19.4947 1.0025e+06
0 8.23301 19.4701 1.00259e+06
0 8.73241 19.4456 1.00268e+06
0 9.2318 19.421 1.00278e+06
0 9.7312 19.3965 1.00286e+06
0 10.2306 19.3719 1.00291e+06
0 10.73 19.3474 1.00291e+06
0 -19.0386 11.2161 1.00329e+06
0 -18.1653 12.0075 1.00315e+06
0 -17.2921 12.7989 1.00299e+06
0 -16.4188 13.5903 1.00282e+06
0 -15.5456 14.3817 1.00266e+06
0 -14.6723 15.1731 1.00254e+06
0 -13.7991 15.9645 1.00247e+06
0 -12.9258 16.7559 1.00241e+06
0 -12.0526 17.5473 1.00237e+06
0 -11.1793 18.3387 1.00244e+06
0 -10.3061 19.1301 1.00259e+06
0 -9.4328 19.9215 1.00247e+06
0 -20.1888 -3.69336 1.06874e+06
0 -20.1427 -2.75699 1.05293e+06
0 -20.0967 -1.82062 1.03744e+06
0 -20.0507 -0.884252 1.02174e+06
0 -20.0046 0.0521165 1.00885e+06
0 -19.9586 0.988485 1.00443e+06
0 -19.9125 1.92485 1.00407e+06
0 -19.8665 2.86122 1.00391e+06
0 -19.8205 3.79759 1.00377e+06
0 -19.7744 4.73396 1.00365e+06
0 -19.7284 5.67033 1.00355e+06
0 -19.6824 6.6067 1.00348e+06
0 -19.6363 7.54307 1.00345e+06
0 -19.5903 8.47944 1.00346e+06
0 -19.5442 9.41581 1.00347e+06
0 -19.4982 10.3522 1.00343e+06
0 -15.8591 -8.96442 1.09725e+06
0 -16.6505 -8.09117 1.08674e+06
0 -17.4419 -7.21792 1.07843e+06
0 -18.2333 -6.34467 1.07431e+06
0 -19.0247 -5.47142 1.07732e+06
0 -19.8161 -4.59817 1.08137e+06
