# p  FACE_DATA 148
#  x  y  z  p
0 -14.5093 -9.99743 1.05206e+06
0 -13.7593 -9.99012 1.0479e+06
0 -13.0094 -9.98282 1.04445e+06
0 -12.2594 -9.97551 1.04168e+06
0 -11.5095 -9.9682 1.03886e+06
0 -10.7595 -9.9609 1.03142e+06
0 -10.0095 -9.95359 1.0223e+06
0 -9.25956 -9.94628 1.01419e+06
0 -8.5096 -9.93898 1.00746e+06
0 -7.75963 -9.93167 1.00286e+06
0 -7.00967 -9.92437 1.001e+06
0 -6.2597 -9.91706 1.00091e+06
0 -5.50974 -9.90975 1.00197e+06
0 -4.75978 -9.90245 1.00365e+06
0 -4.00981 -9.89514 1.00526e+06
0 -3.25985 -9.88783 1.00709e+06
0 -2.50988 -9.88053 1.00924e+06
0 -1.75992 -9.87322 1.01162e+06
0 -1.00995 -9.86591 1.01402e+06
0 -0.259989 -9.85861 1.01897e+06
0 0.489976 -9.8513 1.02322e+06
0 1.23994 -9.844 1.02333e+06
0 1.9899 -9.83669 1.02221e+06
0 2.73987 -9.82938 1.02515e+06
0 3.48983 -9.82208 1.02907e+06
0 4.2398 -9.81477 1.03511e+06
0 4.98976 -9.80746 1.04341e+06
0 5.73973 -9.80016 1.04999e+06
0 6.48969 -9.79285 1.05603e+06
0 7.23966 -9.78555 1.06666e+06
0 7.98962 -9.77824 1.07776e+06
0 8.73958 -9.77093 1.08992e+06
0 9.48955 -9.76363 1.10372e+06
0 10.2395 -9.75632 1.11826e+06
0 10.9895 -9.74901 1.13215e+06
0 11.7394 -9.74171 1.14634e+06
0 12.4894 -9.7344 1.16124e+06
0 13.2394 -9.7271 1.17399e+06
0 13.9893 -9.71979 1.18081e+06
0 14.7393 -9.71248 1.19081e+06
0 15.5269 -9.28812 1.18778e+06
0 16.352 -8.44671 1.18398e+06
0 17.1772 -7.6053 1.18135e+06
0 18.0024 -6.76389 1.17152e+06
0 18.8276 -5.92248 1.15854e+06
0 19.6527 -5.08106 1.15168e+06
0 20.0608 -4.19163 1.17228e+06
0 20.0516 -3.25418 1.19961e+06
0 20.0425 -2.31672 1.19729e+06
0 20.0334 -1.37926 1.15319e+06
0 20.0242 -0.441809 1.05101e+06
0 20.0151 0.495647 1.02534e+06
0 20.006 1.4331 1.01175e+06
0 19.9968 2.37056 1.00663e+06
0 19.9877 3.30801 1.0021e+06
0 19.9786 4.24547 998673
0 19.9694 5.18292 999748
0 19.9603 6.12038 1.0008e+06
0 19.9512 7.05784 1.02308e+06
0 19.942 7.99529 1.06922e+06
0 19.9329 8.93275 1.08015e+06
0 19.9238 9.8702 1.03312e+06
0 19.4985 10.7515 995918
0 18.6571 11.5767 998231
0 17.8157 12.4019 996496
0 16.9743 13.227 995891
0 16.1329 14.0522 995242
0 15.2914 14.8774 995080
0 14.45 15.7026 995302
0 13.6086 16.5277 995622
0 12.7672 17.3529 995964
0 11.9258 18.1781 996188
0 11.0844 19.0033 996251
0 10.243 19.8285 996176
0 -9.9268 20.0486 993211
0 -9.42682 20.0535 993155
0 -8.92684 20.0584 992974
0 -8.42687 20.0633 992714
0 -7.92689 20.0681 992660
0 -7.42691 20.073 992613
0 -6.92694 20.0779 992617
0 -6.42696 20.0827 992679
0 -5.92698 20.0876 992795
0 -5.42701 20.0925 992940
0 -4.92703 20.0973 993079
0 -4.42706 20.1022 993207
0 -3.92708 20.1071 993320
0 -3.4271 20.112 993400
0 -2.92713 20.1168 993429
0 -2.42715 20.1217 993517
0 -1.92717 20.1266 993564
0 -1.4272 20.1314 993579
0 -0.927222 20.1363 993616
0 -0.427246 20.1412 993699
0 0.0727304 20.1461 993844
0 0.572707 20.1509 994039
0 1.07268 20.1558 994231
0 1.57266 20.1607 994361
0 2.07264 20.1655 994427
0 2.57261 20.1704 994476
0 3.07259 20.1753 994534
0 3.57256 20.1802 994621
0 4.07254 20.185 994734
0 4.57252 20.1899 994864
0 5.07249 20.1948 994992
0 5.57247 20.1996 995105
0 6.07245 20.2045 995215
0 6.57242 20.2094 995333
0 7.0724 20.2142 995454
0 7.57237 20.2191 995577
0 8.07235 20.224 995755
0 8.57233 20.2289 995967
0 9.0723 20.2337 996065
0 9.57228 20.2386 996129
0 -19.6663 10.37 991644
0 -18.8411 11.2114 991760
0 -18.016 12.0528 991968
0 -17.1908 12.8942 992222
0 -16.3656 13.7356 992474
0 -15.5404 14.577 992711
0 -14.7152 15.4184 992889
0 -13.8901 16.2599 992968
0 -13.0649 17.1013 992902
0 -12.2397 17.9427 992735
0 -11.4145 18.7841 992724
0 -10.5894 19.6255 993264
0 -19.9373 -4.5813 1.02781e+06
0 -19.9465 -3.64384 1.01615e+06
0 -19.9556 -2.70639 1.00292e+06
0 -19.9647 -1.76893 997770
0 -19.9739 -0.831477 995742
0 -19.983 0.105978 994290
0 -19.9921 1.04343 993646
0 -20.0013 1.98089 993197
0 -20.0104 2.91834 992771
0 -20.0195 3.8558 992388
0 -20.0287 4.79326 992059
0 -20.0378 5.73071 991782
0 -20.0469 6.66817 991579
0 -20.0561 7.60562 991507
0 -20.0652 8.54308 991529
0 -20.0743 9.48053 991621
0 -15.305 -9.58849 1.05114e+06
0 -16.1464 -8.76332 1.05317e+06
0 -16.9878 -7.93814 1.05439e+06
0 -17.8292 -7.11297 1.04732e+06
0 -18.6706 -6.28779 1.03561e+06
0 -19.5121 -5.46261 1.03004e+06
