# p  FACE_DATA 148
#  x  y  z  p
0 -16.2821 -6.76268 730410
0 -15.5473 -6.91294 740227
0 -14.8125 -7.06321 734982
0 -14.0777 -7.21347 738377
0 -13.3429 -7.36373 747403
0 -12.6081 -7.514 758062
0 -11.8733 -7.66426 770684
0 -11.1385 -7.81453 785119
0 -10.4037 -7.96479 802085
0 -9.66892 -8.11506 821548
0 -8.93413 -8.26532 843764
0 -8.19934 -8.41559 868260
0 -7.46454 -8.56585 888853
0 -6.72975 -8.71611 906672
0 -5.99496 -8.86638 927140
0 -5.26016 -9.01664 950058
0 -4.52537 -9.16691 974334
0 -3.79058 -9.31717 1.00016e+06
0 -3.05578 -9.46744 1.02659e+06
0 -2.32099 -9.6177 1.05569e+06
0 -1.5862 -9.76797 1.08632e+06
0 -0.851406 -9.91823 1.11858e+06
0 -0.116613 -10.0685 1.15275e+06
0 0.61818 -10.2188 1.18805e+06
0 1.35297 -10.369 1.21313e+06
0 2.08777 -10.5193 1.22795e+06
0 2.82256 -10.6696 1.24725e+06
0 3.55735 -10.8198 1.27016e+06
0 4.29214 -10.9701 1.29595e+06
0 5.02694 -11.1203 1.3236e+06
0 5.76173 -11.2706 1.34941e+06
0 6.49652 -11.4209 1.37269e+06
0 7.23132 -11.5711 1.39808e+06
0 7.96611 -11.7214 1.42294e+06
0 8.7009 -11.8717 1.44463e+06
0 9.43569 -12.0219 1.4636e+06
0 10.1705 -12.1722 1.4825e+06
0 10.9053 -12.3225 1.49865e+06
0 11.6401 -12.4727 1.50395e+06
0 12.3749 -12.623 1.51489e+06
0 13.234 -12.3734 1.51273e+06
0 14.2174 -11.7239 1.44849e+06
0 15.2008 -11.0744 1.41659e+06
0 16.1842 -10.425 1.3827e+06
0 17.1675 -9.77548 1.3517e+06
0 18.1509 -9.126 1.31625e+06
0 18.7366 -8.34202 1.24709e+06
0 18.9244 -7.42353 1.19527e+06
0 19.1122 -6.50504 1.15374e+06
0 19.3001 -5.58655 1.12544e+06
0 19.4879 -4.66806 1.10246e+06
0 19.6757 -3.74957 1.08831e+06
0 19.8635 -2.83107 1.08285e+06
0 20.0514 -1.91258 1.08176e+06
0 20.2392 -0.994092 1.08747e+06
0 20.427 -0.0756011 1.09528e+06
0 20.6149 0.84289 1.10427e+06
0 20.8027 1.76138 1.10767e+06
0 20.9905 2.67987 1.10743e+06
0 21.1784 3.59836 1.09869e+06
0 21.3662 4.51685 1.06046e+06
0 21.554 5.43535 997356
0 21.3232 6.38629 991103
0 20.6737 7.36969 990801
0 20.0242 8.35308 990278
0 19.3748 9.33648 989242
0 18.7253 10.3199 988139
0 18.0758 11.3033 987656
0 17.4263 12.2867 987915
0 16.7769 13.2701 988695
0 16.1274 14.2535 987619
0 15.4779 15.2369 986158
0 14.8284 16.2203 984965
0 14.179 17.2037 983344
0 -5.49532 21.6523 980125
0 -5.00546 21.5521 980545
0 -4.5156 21.452 980728
0 -4.02574 21.3518 980924
0 -3.53588 21.2516 980940
0 -3.04601 21.1514 980887
0 -2.55615 21.0513 980880
0 -2.06629 20.9511 980894
0 -1.57643 20.8509 980954
0 -1.08657 20.7507 981075
0 -0.596705 20.6506 981154
0 -0.106843 20.5504 981158
0 0.383019 20.4502 981173
0 0.87288 20.35 981304
0 1.36274 20.2499 981427
0 1.8526 20.1497 981533
0 2.34247 20.0495 981635
0 2.83233 19.9493 981728
0 3.32219 19.8491 981811
0 3.81205 19.749 981861
0 4.30191 19.6488 981883
0 4.79178 19.5486 981892
0 5.28164 19.4484 981880
0 5.7715 19.3483 981852
0 6.26136 19.2481 981822
0 6.75122 19.1479 981775
0 7.24109 19.0477 981712
0 7.73095 18.9476 981622
0 8.22081 18.8474 981507
0 8.71067 18.7472 981395
0 9.20053 18.647 981306
0 9.6904 18.5469 981251
0 10.1803 18.4467 981232
0 10.6701 18.3465 981049
0 11.16 18.2463 979422
0 11.6498 18.1461 980182
0 12.1397 18.046 981727
0 12.6296 17.9458 982301
0 13.1194 17.8456 982722
0 13.6093 17.7454 983213
0 -17.0493 14.2334 975333
0 -16.0659 14.8829 978389
0 -15.0825 15.5324 976978
0 -14.0991 16.1819 977389
0 -13.1157 16.8313 977688
0 -12.1323 17.4808 977251
0 -11.1489 18.1303 976620
0 -10.1655 18.7798 975858
0 -9.18215 19.4292 977195
0 -8.19875 20.0787 978346
0 -7.21535 20.7282 978955
0 -6.23195 21.3777 980156
0 -20.4524 -0.327916 881800
0 -20.2646 0.590575 878102
0 -20.0767 1.50907 876467
0 -19.8889 2.42756 875952
0 -19.7011 3.34605 875265
0 -19.5132 4.26454 876014
0 -19.3254 5.18303 882082
0 -19.1376 6.10152 914661
0 -18.9497 7.02001 947741
0 -18.7619 7.9385 959334
0 -18.5741 8.85699 960333
0 -18.3863 9.77549 959794
0 -18.1984 10.694 961923
0 -18.0106 11.6125 965092
0 -17.8228 12.531 970105
0 -17.6349 13.4495 970422
0 -16.9742 -6.19585 724755
0 -17.6237 -5.21245 781297
0 -18.2731 -4.22905 808564
0 -18.9226 -3.24565 836763
0 -19.5721 -2.26226 858804
0 -20.2216 -1.27886 875959
