# p  FACE_DATA 148
#  x  y  z  p
0 -15.996 -7.57647 902183
0 -15.2548 -7.69112 899141
0 -14.5136 -7.80577 896740
0 -13.7724 -7.92042 897373
0 -13.0312 -8.03508 899245
0 -12.29 -8.14973 903361
0 -11.5489 -8.26438 909468
0 -10.8077 -8.37903 917894
0 -10.0665 -8.49368 930545
0 -9.32531 -8.60834 941742
0 -8.58412 -8.72299 944515
0 -7.84294 -8.83764 950037
0 -7.10175 -8.95229 961339
0 -6.36057 -9.06694 976242
0 -5.61938 -9.1816 992346
0 -4.8782 -9.29625 1.00926e+06
0 -4.13701 -9.4109 1.02669e+06
0 -3.39583 -9.52555 1.04442e+06
0 -2.65464 -9.6402 1.0625e+06
0 -1.91346 -9.75486 1.08201e+06
0 -1.17227 -9.86951 1.10351e+06
0 -0.431089 -9.98416 1.12754e+06
0 0.310096 -10.0988 1.14767e+06
0 1.05128 -10.2135 1.15528e+06
0 1.79247 -10.3281 1.1543e+06
0 2.53365 -10.4428 1.15588e+06
0 3.27483 -10.5574 1.16438e+06
0 4.01602 -10.6721 1.17827e+06
0 4.7572 -10.7867 1.1915e+06
0 5.49839 -10.9014 1.20638e+06
0 6.23957 -11.016 1.22402e+06
0 6.98076 -11.1307 1.24421e+06
0 7.72194 -11.2453 1.2628e+06
0 8.46313 -11.36 1.27903e+06
0 9.20431 -11.4746 1.29682e+06
0 9.9455 -11.5893 1.31732e+06
0 10.6867 -11.7039 1.33779e+06
0 11.4279 -11.8186 1.35241e+06
0 12.1691 -11.9332 1.36032e+06
0 12.9102 -12.0479 1.38031e+06
0 13.7563 -11.7571 1.37738e+06
0 14.7072 -11.061 1.32857e+06
0 15.6582 -10.3649 1.30032e+06
0 16.6091 -9.66871 1.279e+06
0 17.56 -8.97256 1.26035e+06
0 18.5109 -8.27641 1.22769e+06
0 19.0581 -7.4651 1.16712e+06
0 19.2014 -6.53862 1.12596e+06
0 19.3447 -5.61214 1.0935e+06
0 19.488 -4.68565 1.04676e+06
0 19.6313 -3.75917 1.04257e+06
0 19.7746 -2.83269 1.04178e+06
0 19.918 -1.90621 1.04087e+06
0 20.0613 -0.97973 1.03998e+06
0 20.2046 -0.0532493 1.03921e+06
0 20.3479 0.873232 1.03783e+06
0 20.4912 1.79971 1.02418e+06
0 20.6345 2.72619 1.01492e+06
0 20.7778 3.65267 1.01259e+06
0 20.9212 4.57916 1.01458e+06
0 21.0645 5.50564 1.01686e+06
0 21.2078 6.43212 1.01682e+06
0 20.9314 7.37082 1.01047e+06
0 20.2352 8.32175 1.00698e+06
0 19.5391 9.27268 1.00528e+06
0 18.8429 10.2236 1.00039e+06
0 18.1468 11.1745 997916
0 17.4506 12.1255 997230
0 16.7545 13.0764 996762
0 16.0583 14.0273 996253
0 15.3622 14.9783 995755
0 14.666 15.9292 995515
0 13.9699 16.8801 995558
0 13.2738 17.8311 994969
0 -6.59219 21.3257 987951
0 -6.09807 21.2493 988259
0 -5.60394 21.1728 988282
0 -5.10982 21.0964 988318
0 -4.6157 21.0199 988461
0 -4.12157 20.9435 988687
0 -3.62745 20.8671 988875
0 -3.13333 20.7906 988912
0 -2.6392 20.7142 988933
0 -2.14508 20.6378 988969
0 -1.65096 20.5613 989014
0 -1.15683 20.4849 989081
0 -0.66271 20.4085 989149
0 -0.168587 20.332 989227
0 0.325537 20.2556 989316
0 0.81966 20.1792 989415
0 1.31378 20.1027 989524
0 1.80791 20.0263 989635
0 2.30203 19.9499 989748
0 2.79615 19.8734 989871
0 3.29028 19.797 990005
0 3.7844 19.7206 990145
0 4.27852 19.6441 990341
0 4.77265 19.5677 990520
0 5.26677 19.4913 990692
0 5.76089 19.4148 990878
0 6.25502 19.3384 991080
0 6.74914 19.2619 991295
0 7.24326 19.1855 991523
0 7.73738 19.1091 991770
0 8.23151 19.0326 992040
0 8.72563 18.9562 992346
0 9.21975 18.8798 992699
0 9.71388 18.8033 993034
0 10.208 18.7269 993196
0 10.7021 18.6505 993499
0 11.1962 18.574 994063
0 11.6904 18.4976 994373
0 12.1845 18.4212 994626
0 12.6786 18.3447 994910
0 -17.7749 13.3582 985547
0 -16.824 14.0544 985150
0 -15.8731 14.7505 984631
0 -14.9222 15.4466 984228
0 -13.9712 16.1428 984616
0 -13.0203 16.8389 985630
0 -12.0694 17.5351 988857
0 -11.1184 18.2312 989439
0 -10.1675 18.9274 987420
0 -9.21657 19.6235 987589
0 -8.26564 20.3197 987605
0 -7.31471 21.0158 988025
0 -20.4718 -1.35032 965769
0 -20.3285 -0.423842 973981
0 -20.1852 0.502639 975261
0 -20.0418 1.42912 971671
0 -19.8985 2.3556 970508
0 -19.7552 3.28208 974179
0 -19.6119 4.20856 979341
0 -19.4686 5.13504 979137
0 -19.3253 6.06152 979657
0 -19.182 6.98801 980291
0 -19.0386 7.91449 980987
0 -18.8953 8.84097 981512
0 -18.752 9.76745 979398
0 -18.6087 10.6939 983754
0 -18.4654 11.6204 984475
0 -18.3221 12.5469 984807
0 -16.7146 -7.04368 896810
0 -17.4108 -6.09275 934434
0 -18.1069 -5.14182 931359
0 -18.8031 -4.19089 938659
0 -19.4992 -3.23996 948737
0 -20.1954 -2.28903 956965
