# p  FACE_DATA 148
#  x  y  z  p
0 -14.3932 -10.5063 1.20948e+06
0 -13.6435 -10.4858 1.19409e+06
0 -12.8937 -10.4653 1.1866e+06
0 -12.144 -10.4448 1.18035e+06
0 -11.3943 -10.4242 1.17178e+06
0 -10.6446 -10.4037 1.1641e+06
0 -9.89487 -10.3832 1.15841e+06
0 -9.14515 -10.3627 1.15315e+06
0 -8.39543 -10.3421 1.14747e+06
0 -7.64572 -10.3216 1.14109e+06
0 -6.896 -10.3011 1.13393e+06
0 -6.14628 -10.2806 1.12601e+06
0 -5.39656 -10.26 1.11744e+06
0 -4.64684 -10.2395 1.10838e+06
0 -3.89712 -10.219 1.09858e+06
0 -3.1474 -10.1985 1.08838e+06
0 -2.39768 -10.1779 1.07979e+06
0 -1.64796 -10.1574 1.07385e+06
0 -0.898244 -10.1369 1.07307e+06
0 -0.148524 -10.1164 1.07404e+06
0 0.601195 -10.0958 1.07074e+06
0 1.35091 -10.0753 1.06186e+06
0 2.10063 -10.0548 1.05486e+06
0 2.85035 -10.0343 1.05126e+06
0 3.60007 -10.0138 1.04865e+06
0 4.34979 -9.99323 1.04573e+06
0 5.09951 -9.9727 1.04259e+06
0 5.84923 -9.95218 1.03951e+06
0 6.59895 -9.93165 1.03681e+06
0 7.34867 -9.91113 1.03471e+06
0 8.09839 -9.89061 1.03316e+06
0 8.84811 -9.87008 1.03208e+06
0 9.59782 -9.84956 1.03157e+06
0 10.3475 -9.82904 1.0318e+06
0 11.0973 -9.80851 1.03294e+06
0 11.847 -9.78799 1.03503e+06
0 12.5967 -9.76746 1.03824e+06
0 13.3464 -9.74694 1.04271e+06
0 14.0961 -9.72642 1.04851e+06
0 14.8459 -9.70589 1.05614e+06
0 15.6258 -9.26772 1.05172e+06
0 16.436 -8.41189 1.06063e+06
0 17.2463 -7.55607 1.04801e+06
0 18.0565 -6.70024 1.03952e+06
0 18.8667 -5.84441 1.03788e+06
0 19.6769 -4.98859 1.03822e+06
0 20.0692 -4.0921 1.04859e+06
0 20.0435 -3.15495 1.04178e+06
0 20.0179 -2.2178 1.02613e+06
0 19.9922 -1.28066 1.01268e+06
0 19.9666 -0.343506 1.00508e+06
0 19.9409 0.593643 1.0012e+06
0 19.9153 1.53079 999208
0 19.8896 2.46794 999734
0 19.864 3.40509 1.00108e+06
0 19.8383 4.34224 1.00074e+06
0 19.8126 5.27939 999656
0 19.787 6.21654 993524
0 19.7613 7.15369 977328
0 19.7357 8.09083 986354
0 19.71 9.02798 1.00463e+06
0 19.6844 9.96513 1.00308e+06
0 19.2436 10.8388 1.00312e+06
0 18.3878 11.649 1.00256e+06
0 17.532 12.4592 1.00212e+06
0 16.6762 13.2695 1.00186e+06
0 15.8203 14.0797 1.00172e+06
0 14.9645 14.8899 1.00165e+06
0 14.1087 15.7001 1.00157e+06
0 13.2528 16.5103 1.00149e+06
0 12.397 17.3206 1.00148e+06
0 11.5412 18.1308 1.0015e+06
0 10.6854 18.941 1.00152e+06
0 9.82955 19.7512 1.00167e+06
0 -10.341 19.6158 1.00172e+06
0 -9.84116 19.6295 1.00274e+06
0 -9.34134 19.6432 1.00174e+06
0 -8.84153 19.6569 999876
0 -8.34172 19.6706 998252
0 -7.84191 19.6843 994598
0 -7.34209 19.6979 999963
0 -6.84228 19.7116 1.00112e+06
0 -6.34247 19.7253 1.00089e+06
0 -5.84265 19.739 1.00103e+06
0 -5.34284 19.7527 1.0012e+06
0 -4.84303 19.7664 1.00129e+06
0 -4.34322 19.78 1.00129e+06
0 -3.8434 19.7937 1.00129e+06
0 -3.34359 19.8074 1.00129e+06
0 -2.84378 19.8211 1.0013e+06
0 -2.34397 19.8348 1.00132e+06
0 -1.84415 19.8485 1.00134e+06
0 -1.34434 19.8621 1.00136e+06
0 -0.844527 19.8758 1.00137e+06
0 -0.344715 19.8895 1.00138e+06
0 0.155098 19.9032 1.00138e+06
0 0.654911 19.9169 1.00138e+06
0 1.15472 19.9305 1.00136e+06
0 1.65454 19.9442 1.00133e+06
0 2.15435 19.9579 1.00131e+06
0 2.65416 19.9716 1.0013e+06
0 3.15397 19.9853 1.00131e+06
0 3.65379 19.999 1.00132e+06
0 4.1536 20.0126 1.00134e+06
0 4.65341 20.0263 1.00137e+06
0 5.15323 20.04 1.0014e+06
0 5.65304 20.0537 1.00145e+06
0 6.15285 20.0674 1.00149e+06
0 6.65266 20.0811 1.00153e+06
0 7.15248 20.0947 1.00158e+06
0 7.65229 20.1084 1.00163e+06
0 8.1521 20.1221 1.00168e+06
0 8.65191 20.1358 1.00168e+06
0 9.15173 20.1495 1.00162e+06
0 -19.9084 9.76701 1.00066e+06
0 -19.0982 10.6228 1.00008e+06
0 -18.2879 11.4787 999703
0 -17.4777 12.3345 996189
0 -16.6675 13.1903 990690
0 -15.8573 14.0461 988694
0 -15.0471 14.902 990225
0 -14.2369 15.7578 992434
0 -13.4266 16.6136 994557
0 -12.6164 17.4694 999210
0 -11.8062 18.3253 1.00555e+06
0 -10.996 19.1811 1.00444e+06
0 -19.9158 -5.18671 1.12577e+06
0 -19.9415 -4.24956 1.07107e+06
0 -19.9671 -3.31241 1.01759e+06
0 -19.9928 -2.37526 1.00574e+06
0 -20.0184 -1.43811 1.00659e+06
0 -20.0441 -0.500966 1.00615e+06
0 -20.0698 0.436183 1.00603e+06
0 -20.0954 1.37333 1.00574e+06
0 -20.1211 2.31048 1.00535e+06
0 -20.1467 3.24763 1.00522e+06
0 -20.1724 4.18478 1.00523e+06
0 -20.198 5.12193 1.00539e+06
0 -20.2237 6.05908 1.00545e+06
0 -20.2493 6.99623 1.00576e+06
0 -20.275 7.93337 1.012e+06
0 -20.3007 8.87052 1.0415e+06
0 -15.196 -10.1115 1.20552e+06
0 -16.0518 -9.30126 1.18453e+06
0 -16.9076 -8.49104 1.16547e+06
0 -17.7634 -7.68083 1.14993e+06
0 -18.6193 -6.87061 1.15178e+06
0 -19.4751 -6.06039 1.1656e+06
