# p  FACE_DATA 148
#  x  y  z  p
0 -16.1229 -7.24585 780710
0 -15.384 -7.37449 783231
0 -14.6451 -7.50314 781438
0 -13.9062 -7.63179 789162
0 -13.1673 -7.76043 796179
0 -12.4284 -7.88908 802949
0 -11.6896 -8.01772 819614
0 -10.9507 -8.14637 839715
0 -10.2118 -8.27502 844430
0 -9.47291 -8.40366 850663
0 -8.73403 -8.53231 865250
0 -7.99514 -8.66095 884054
0 -7.25626 -8.7896 906293
0 -6.51737 -8.91825 925199
0 -5.77849 -9.04689 945634
0 -5.03961 -9.17554 966361
0 -4.30072 -9.30418 987779
0 -3.56184 -9.43283 1.01054e+06
0 -2.82295 -9.56148 1.03303e+06
0 -2.08407 -9.69012 1.05459e+06
0 -1.34518 -9.81877 1.07835e+06
0 -0.606299 -9.94741 1.10413e+06
0 0.132586 -10.0761 1.13142e+06
0 0.87147 -10.2047 1.16028e+06
0 1.61035 -10.3334 1.1912e+06
0 2.34924 -10.462 1.22092e+06
0 3.08812 -10.5906 1.23965e+06
0 3.82701 -10.7193 1.25205e+06
0 4.56589 -10.8479 1.26788e+06
0 5.30478 -10.9766 1.28834e+06
0 6.04366 -11.1052 1.31328e+06
0 6.78255 -11.2339 1.33898e+06
0 7.52143 -11.3625 1.36428e+06
0 8.26031 -11.4912 1.39123e+06
0 8.9992 -11.6198 1.4181e+06
0 9.73808 -11.7485 1.43876e+06
0 10.477 -11.8771 1.45303e+06
0 11.2159 -12.0057 1.46691e+06
0 11.9547 -12.1344 1.4746e+06
0 12.6936 -12.263 1.49481e+06
0 13.545 -11.9883 1.49248e+06
0 14.5089 -11.3103 1.44172e+06
0 15.4729 -10.6323 1.41542e+06
0 16.4368 -9.95422 1.39274e+06
0 17.4007 -9.27617 1.37213e+06
0 18.3646 -8.59813 1.34604e+06
0 18.927 -7.79731 1.28937e+06
0 19.0878 -6.8737 1.24318e+06
0 19.2486 -5.95009 1.20661e+06
0 19.4094 -5.02649 1.18043e+06
0 19.5702 -4.10288 1.15731e+06
0 19.731 -3.17928 1.13397e+06
0 19.8918 -2.25567 1.11423e+06
0 20.0527 -1.33207 1.09939e+06
0 20.2135 -0.408462 1.07405e+06
0 20.3743 0.515144 1.04984e+06
0 20.5351 1.43875 1.04754e+06
0 20.6959 2.36236 1.04808e+06
0 20.8567 3.28596 1.04799e+06
0 21.0175 4.20957 1.04827e+06
0 21.1783 5.13317 1.04951e+06
0 21.3391 6.05678 1.06231e+06
0 21.0805 7.00054 994404
0 20.4025 7.96446 988255
0 19.7244 8.92839 986940
0 19.0464 9.89231 986334
0 18.3683 10.8562 986063
0 17.6903 11.8202 985881
0 17.0122 12.7841 985597
0 16.3342 13.748 985343
0 15.6562 14.7119 985211
0 14.9781 15.6758 985273
0 14.3001 16.6398 985448
0 13.622 17.6037 984905
0 -6.17428 21.4733 981514
0 -5.68169 21.3876 982085
0 -5.1891 21.3018 982098
0 -4.69651 21.216 982201
0 -4.20392 21.1303 982243
0 -3.71133 21.0445 982249
0 -3.21874 20.9587 982256
0 -2.72616 20.873 982229
0 -2.23357 20.7872 982214
0 -1.74098 20.7015 982221
0 -1.24839 20.6157 982214
0 -0.755797 20.5299 982223
0 -0.263207 20.4442 982250
0 0.229382 20.3584 982312
0 0.721972 20.2726 982382
0 1.21456 20.1869 982409
0 1.70715 20.1011 982364
0 2.19974 20.0153 982290
0 2.69233 19.9296 982238
0 3.18492 19.8438 982223
0 3.67751 19.7581 982229
0 4.1701 19.6723 982227
0 4.66269 19.5865 982208
0 5.15528 19.5008 982058
0 5.64787 19.415 981656
0 6.14046 19.3292 982147
0 6.63305 19.2435 982391
0 7.12564 19.1577 982448
0 7.61823 19.0719 982496
0 8.11082 18.9862 982535
0 8.60341 18.9004 982589
0 9.096 18.8146 982664
0 9.58859 18.7289 982758
0 10.0812 18.6431 982882
0 10.5738 18.5574 983041
0 11.0664 18.4716 983236
0 11.5589 18.3858 983505
0 12.0515 18.3001 983481
0 12.5441 18.2143 984373
0 13.0367 18.1285 984846
0 -17.5057 13.7187 978990
0 -16.5418 14.3968 979146
0 -15.5778 15.0748 978996
0 -14.6139 15.7528 979080
0 -13.65 16.4309 979327
0 -12.6861 17.1089 979596
0 -11.7222 17.787 979704
0 -10.7582 18.465 979844
0 -9.79431 19.1431 980067
0 -8.83038 19.8211 980472
0 -7.86646 20.4991 980775
0 -6.90254 21.1772 981607
0 -20.4802 -0.936186 887937
0 -20.3194 -0.0125802 899767
0 -20.1586 0.911025 902319
0 -19.9977 1.83463 901909
0 -19.8369 2.75824 901464
0 -19.6761 3.68184 900670
0 -19.5153 4.60545 900773
0 -19.3545 5.52905 910178
0 -19.1937 6.45266 959139
0 -19.0329 7.37626 977775
0 -18.8721 8.29987 976858
0 -18.7113 9.22348 976463
0 -18.5505 10.1471 976670
0 -18.3897 11.0707 977040
0 -18.2289 11.9943 977564
0 -18.0681 12.9179 977755
0 -16.8313 -6.69956 775239
0 -17.5094 -5.73564 821582
0 -18.1874 -4.77172 819822
0 -18.8655 -3.8078 832572
0 -19.5435 -2.84387 848531
0 -20.2215 -1.87995 866942
