# p  FACE_DATA 148
#  x  y  z  p
0 -12.1206 -13.0078 1.46815e+06
0 -11.3884 -12.8451 1.45926e+06
0 -10.6563 -12.6824 1.45802e+06
0 -9.92415 -12.5197 1.44309e+06
0 -9.19201 -12.357 1.42497e+06
0 -8.45987 -12.1943 1.40988e+06
0 -7.72773 -12.0316 1.39588e+06
0 -6.99559 -11.8689 1.38112e+06
0 -6.26344 -11.7062 1.35955e+06
0 -5.5313 -11.5435 1.33538e+06
0 -4.79916 -11.3808 1.31687e+06
0 -4.06702 -11.2181 1.30454e+06
0 -3.33488 -11.0554 1.29448e+06
0 -2.60274 -10.8927 1.2751e+06
0 -1.8706 -10.73 1.24483e+06
0 -1.13846 -10.5673 1.21338e+06
0 -0.406321 -10.4046 1.18357e+06
0 0.32582 -10.2419 1.15564e+06
0 1.05796 -10.0792 1.12919e+06
0 1.7901 -9.91652 1.10467e+06
0 2.52224 -9.75383 1.08132e+06
0 3.25438 -9.59113 1.05879e+06
0 3.98652 -9.42843 1.03669e+06
0 4.71866 -9.26574 1.01514e+06
0 5.4508 -9.10304 994548
0 6.18294 -8.94034 974756
0 6.91508 -8.77764 954637
0 7.64722 -8.61495 934758
0 8.37936 -8.45225 916206
0 9.11151 -8.28955 898135
0 9.84365 -8.12686 879410
0 10.5758 -7.96416 860665
0 11.3079 -7.80146 843046
0 12.0401 -7.63876 827115
0 12.7722 -7.47607 811944
0 13.5043 -7.31337 798354
0 14.2365 -7.15067 789414
0 14.9686 -6.98798 786076
0 15.7008 -6.82528 789527
0 16.4329 -6.66258 777252
0 17.1153 -6.0841 772620
0 17.7481 -5.08984 793744
0 18.3808 -4.09557 810305
0 19.0135 -3.10131 824765
0 19.6462 -2.10705 839413
0 20.2789 -1.11278 860972
0 20.4936 -0.158063 897871
0 20.2902 0.757113 925108
0 20.0868 1.67229 946728
0 19.8835 2.58746 965726
0 19.6801 3.50264 973510
0 19.4767 4.41782 973336
0 19.2734 5.33299 973667
0 19.07 6.24817 974185
0 18.8666 7.16334 974916
0 18.6632 8.07852 976168
0 18.4599 8.99369 977177
0 18.2565 9.90887 977677
0 18.0531 10.824 978085
0 17.8498 11.7392 978313
0 17.6464 12.6544 978896
0 17.443 13.5696 979565
0 16.8442 14.3435 980062
0 15.8499 14.9762 980616
0 14.8557 15.6089 981266
0 13.8614 16.2417 981845
0 12.8671 16.8744 982137
0 11.8729 17.5071 982372
0 10.8786 18.1398 982597
0 9.88435 18.7725 982829
0 8.89009 19.4052 983077
0 7.89582 20.038 983405
0 6.90156 20.6707 983713
0 5.90729 21.3034 984528
0 -13.8695 17.3354 990346
0 -13.3814 17.4438 989908
0 -12.8933 17.5523 989924
0 -12.4053 17.6608 989925
0 -11.9172 17.7692 989940
0 -11.4291 17.8777 989851
0 -10.941 17.9862 989671
0 -10.4529 18.0946 989504
0 -9.96479 18.2031 989360
0 -9.47669 18.3116 989250
0 -8.9886 18.42 989176
0 -8.50051 18.5285 989089
0 -8.01241 18.637 989019
0 -7.52432 18.7454 988919
0 -7.03623 18.8539 988788
0 -6.54813 18.9624 988636
0 -6.06004 19.0708 988478
0 -5.57195 19.1793 988322
0 -5.08385 19.2877 988161
0 -4.59576 19.3962 988002
0 -4.10766 19.5047 987850
0 -3.61957 19.6131 987709
0 -3.13148 19.7216 987588
0 -2.64338 19.8301 987496
0 -2.15529 19.9385 987431
0 -1.6672 20.047 987349
0 -1.1791 20.1555 987146
0 -0.691009 20.2639 986898
0 -0.202915 20.3724 986825
0 0.285179 20.4809 986670
0 0.773272 20.5893 986488
0 1.26137 20.6978 986335
0 1.74946 20.8063 986167
0 2.23755 20.9147 985972
0 2.72565 21.0232 985793
0 3.21374 21.1316 985627
0 3.70183 21.2401 985387
0 4.18993 21.3486 985089
0 4.67802 21.457 984807
0 5.16612 21.5655 984499
0 -21.3898 5.84711 996916
0 -20.7571 6.84138 995685
0 -20.1244 7.83564 995422
0 -19.4917 8.82991 995667
0 -18.8589 9.82417 995685
0 -18.2262 10.8184 995191
0 -17.5935 11.8127 994868
0 -16.9608 12.807 994805
0 -16.3281 13.8012 996980
0 -15.6954 14.7955 992859
0 -15.0627 15.7898 991600
0 -14.4299 16.784 990726
0 -18.5539 -8.83524 1.20303e+06
0 -18.7573 -7.92006 1.17017e+06
0 -18.9607 -7.00489 1.14738e+06
0 -19.164 -6.08971 1.12194e+06
0 -19.3674 -5.17454 1.08881e+06
0 -19.5708 -4.25936 1.07956e+06
0 -19.7741 -3.34419 1.0756e+06
0 -19.9775 -2.42901 1.06618e+06
0 -20.1809 -1.51383 1.03411e+06
0 -20.3842 -0.598658 1.01512e+06
0 -20.5876 0.316517 1.00547e+06
0 -20.791 1.23169 1.00384e+06
0 -20.9944 2.14687 1.00366e+06
0 -21.1977 3.06204 1.00426e+06
0 -21.4011 3.97722 1.00474e+06
0 -21.6045 4.8924 1.01389e+06
0 -12.9838 -12.7728 1.46578e+06
0 -13.978 -12.14 1.38004e+06
0 -14.9723 -11.5073 1.3768e+06
0 -15.9666 -10.8746 1.34162e+06
0 -16.9608 -10.2419 1.30813e+06
0 -17.9551 -9.60918 1.26839e+06
