# p  FACE_DATA 148
#  x  y  z  p
0 -14.7585 -9.94999 1.14032e+06
0 -14.0086 -9.96027 1.12651e+06
0 -13.2586 -9.97056 1.11964e+06
0 -12.5087 -9.98084 1.11317e+06
0 -11.7588 -9.99112 1.10483e+06
0 -11.0089 -10.0014 1.09582e+06
0 -10.2589 -10.0117 1.08806e+06
0 -9.50899 -10.022 1.08199e+06
0 -8.75906 -10.0323 1.07682e+06
0 -8.00913 -10.0425 1.07193e+06
0 -7.2592 -10.0528 1.06757e+06
0 -6.50927 -10.0631 1.06391e+06
0 -5.75934 -10.0734 1.06077e+06
0 -5.00941 -10.0837 1.05807e+06
0 -4.25948 -10.094 1.05575e+06
0 -3.50956 -10.1042 1.05363e+06
0 -2.75963 -10.1145 1.05149e+06
0 -2.0097 -10.1248 1.04927e+06
0 -1.25977 -10.1351 1.04722e+06
0 -0.509837 -10.1454 1.04574e+06
0 0.240092 -10.1557 1.04497e+06
0 0.990022 -10.1659 1.04501e+06
0 1.73995 -10.1762 1.04539e+06
0 2.48988 -10.1865 1.04573e+06
0 3.23981 -10.1968 1.04621e+06
0 3.98974 -10.2071 1.04702e+06
0 4.73967 -10.2173 1.04821e+06
0 5.4896 -10.2276 1.04986e+06
0 6.23953 -10.2379 1.05204e+06
0 6.98946 -10.2482 1.05474e+06
0 7.73939 -10.2585 1.05802e+06
0 8.48932 -10.2688 1.06189e+06
0 9.23925 -10.279 1.06645e+06
0 9.98918 -10.2893 1.07173e+06
0 10.7391 -10.2996 1.07777e+06
0 11.489 -10.3099 1.08444e+06
0 12.239 -10.3202 1.09188e+06
0 12.9889 -10.3305 1.10039e+06
0 13.7388 -10.3407 1.10892e+06
0 14.4888 -10.351 1.11772e+06
0 15.2861 -9.94525 1.11362e+06
0 16.1307 -9.12342 1.12208e+06
0 16.9754 -8.30159 1.10509e+06
0 17.8201 -7.47976 1.09159e+06
0 18.6648 -6.65793 1.08605e+06
0 19.5095 -5.83611 1.08242e+06
0 19.9382 -4.95648 1.08016e+06
0 19.9511 -4.01907 1.06222e+06
0 19.9639 -3.08166 1.03997e+06
0 19.9768 -2.14425 1.02178e+06
0 19.9896 -1.20684 1.01031e+06
0 20.0025 -0.269425 1.00531e+06
0 20.0153 0.667987 1.00483e+06
0 20.0282 1.6054 1.00471e+06
0 20.0411 2.54281 1.00459e+06
0 20.0539 3.48022 1.00447e+06
0 20.0668 4.41763 1.00436e+06
0 20.0796 5.35505 1.00427e+06
0 20.0925 6.29246 1.00421e+06
0 20.1053 7.22987 1.00418e+06
0 20.1182 8.16728 1.00417e+06
0 20.131 9.10469 1.00417e+06
0 19.7265 9.99574 1.00424e+06
0 18.9047 10.8404 1.00391e+06
0 18.0829 11.6851 1.00359e+06
0 17.2611 12.5298 1.00335e+06
0 16.4392 13.3745 1.00317e+06
0 15.6174 14.2191 1.00303e+06
0 14.7956 15.0638 1.00292e+06
0 13.9737 15.9085 1.00284e+06
0 13.1519 16.7532 1.00278e+06
0 12.3301 17.5979 1.00276e+06
0 11.5082 18.4425 1.00275e+06
0 10.6864 19.2872 1.00281e+06
0 -9.47264 19.9803 1.00264e+06
0 -8.97269 19.9735 1.00258e+06
0 -8.47273 19.9666 1.00252e+06
0 -7.97278 19.9598 1.00246e+06
0 -7.47283 19.9529 1.00241e+06
0 -6.97287 19.9461 1.00235e+06
0 -6.47292 19.9392 1.00229e+06
0 -5.97297 19.9324 1.00224e+06
0 -5.47301 19.9255 1.00218e+06
0 -4.97306 19.9187 1.00213e+06
0 -4.47311 19.9118 1.00208e+06
0 -3.97316 19.9049 1.00204e+06
0 -3.4732 19.8981 1.002e+06
0 -2.97325 19.8912 1.00197e+06
0 -2.4733 19.8844 1.00194e+06
0 -1.97334 19.8775 1.00192e+06
0 -1.47339 19.8707 1.00191e+06
0 -0.973437 19.8638 1.0019e+06
0 -0.473484 19.857 1.00189e+06
0 0.0264688 19.8501 1.00188e+06
0 0.526422 19.8432 1.00189e+06
0 1.02637 19.8364 1.0019e+06
0 1.52633 19.8295 1.00192e+06
0 2.02628 19.8227 1.00194e+06
0 2.52623 19.8158 1.00197e+06
0 3.02619 19.809 1.00201e+06
0 3.52614 19.8021 1.00204e+06
0 4.02609 19.7953 1.00208e+06
0 4.52605 19.7884 1.00213e+06
0 5.026 19.7815 1.00218e+06
0 5.52595 19.7747 1.00223e+06
0 6.0259 19.7678 1.0023e+06
0 6.52586 19.761 1.00237e+06
0 7.02581 19.7541 1.00245e+06
0 7.52576 19.7473 1.00252e+06
0 8.02572 19.7404 1.0026e+06
0 8.52567 19.7336 1.00269e+06
0 9.02562 19.7267 1.00277e+06
0 9.52558 19.7198 1.0028e+06
0 10.0255 19.713 1.00277e+06
0 -19.4364 10.5327 1.00383e+06
0 -18.5918 11.3546 1.00365e+06
0 -17.7471 12.1764 1.00345e+06
0 -16.9024 12.9982 1.00325e+06
0 -16.0577 13.8201 1.00307e+06
0 -15.213 14.6419 1.00292e+06
0 -14.3684 15.4637 1.00282e+06
0 -13.5237 16.2855 1.00275e+06
0 -12.679 17.1074 1.00269e+06
0 -11.8343 17.9292 1.00273e+06
0 -10.9896 18.751 1.00287e+06
0 -10.145 19.5729 1.00268e+06
0 -20.058 -4.40806 1.09048e+06
0 -20.0452 -3.47065 1.07056e+06
0 -20.0323 -2.53324 1.05201e+06
0 -20.0195 -1.59583 1.03377e+06
0 -20.0066 -0.658413 1.01645e+06
0 -19.9937 0.278998 1.00618e+06
0 -19.9809 1.21641 1.00473e+06
0 -19.968 2.15382 1.00459e+06
0 -19.9552 3.09123 1.00446e+06
0 -19.9423 4.02865 1.00434e+06
0 -19.9295 4.96606 1.00424e+06
0 -19.9166 5.90347 1.00416e+06
0 -19.9038 6.84088 1.00412e+06
0 -19.8909 7.77829 1.00411e+06
0 -19.8781 8.71571 1.0041e+06
0 -19.8652 9.65312 1.00403e+06
0 -15.5444 -9.52251 1.13601e+06
0 -16.3662 -8.67783 1.12184e+06
0 -17.188 -7.83315 1.11123e+06
0 -18.0099 -6.98847 1.10506e+06
0 -18.8317 -6.14379 1.10593e+06
0 -19.6535 -5.29911 1.10715e+06
