# p  FACE_DATA 148
#  x  y  z  p
0 -12.2274 -12.8743 1.53254e+06
0 -11.4949 -12.7137 1.51937e+06
0 -10.7623 -12.553 1.51811e+06
0 -10.0297 -12.3923 1.50491e+06
0 -9.29709 -12.2316 1.48657e+06
0 -8.56451 -12.071 1.46731e+06
0 -7.83192 -11.9103 1.44863e+06
0 -7.09933 -11.7496 1.41948e+06
0 -6.36674 -11.5889 1.39075e+06
0 -5.63416 -11.4283 1.3704e+06
0 -4.90157 -11.2676 1.35528e+06
0 -4.16898 -11.1069 1.32838e+06
0 -3.4364 -10.9462 1.30051e+06
0 -2.70381 -10.7856 1.27194e+06
0 -1.97122 -10.6249 1.24179e+06
0 -1.23863 -10.4642 1.21409e+06
0 -0.506048 -10.3035 1.19094e+06
0 0.22654 -10.1429 1.16683e+06
0 0.959127 -9.9822 1.13608e+06
0 1.69171 -9.82153 1.10481e+06
0 2.4243 -9.66085 1.07405e+06
0 3.15689 -9.50018 1.04239e+06
0 3.88948 -9.3395 1.01671e+06
0 4.62206 -9.17883 991791
0 5.35465 -9.01816 966261
0 6.08724 -8.85748 942347
0 6.81982 -8.69681 923904
0 7.55241 -8.53613 904614
0 8.285 -8.37546 882211
0 9.01759 -8.21479 865376
0 9.75017 -8.05411 848860
0 10.4828 -7.89344 833536
0 11.2153 -7.73277 819357
0 11.9479 -7.57209 806289
0 12.6805 -7.41142 794351
0 13.4131 -7.25074 785084
0 14.1457 -7.09007 777879
0 14.8783 -6.9294 771596
0 15.6109 -6.76872 770560
0 16.3435 -6.60805 763879
0 17.0275 -6.03146 758506
0 17.6629 -5.03894 809541
0 18.2984 -4.04643 833898
0 18.9339 -3.05392 861911
0 19.5693 -2.06141 893735
0 20.2048 -1.0689 947841
0 20.4221 -0.114773 959759
0 20.2212 0.800961 960388
0 20.0204 1.7167 961749
0 19.8196 2.63243 963329
0 19.6187 3.54816 964475
0 19.4179 4.4639 965122
0 19.217 5.37963 965599
0 19.0162 6.29536 965994
0 18.8153 7.2111 966347
0 18.6145 8.12683 966671
0 18.4137 9.04257 966969
0 18.2128 9.9583 967293
0 18.012 10.874 967622
0 17.8111 11.7898 967992
0 17.6103 12.7055 968334
0 17.4095 13.6212 968696
0 16.8128 14.3968 969488
0 15.8203 15.0323 970078
0 14.8278 15.6678 970589
0 13.8352 16.3032 971030
0 12.8427 16.9387 971423
0 11.8502 17.5741 971772
0 10.8577 18.2096 972100
0 9.86519 18.845 972436
0 8.87268 19.4805 972801
0 7.88017 20.116 973426
0 6.88765 20.7514 973525
0 5.89514 21.3869 974761
0 -13.8926 17.4735 981110
0 -13.4042 17.5807 980594
0 -12.9158 17.6878 980522
0 -12.4274 17.7949 980327
0 -11.939 17.902 980145
0 -11.4506 18.0091 979956
0 -10.9622 18.1162 979785
0 -10.4738 18.2233 979615
0 -9.98545 18.3305 979403
0 -9.49705 18.4376 979277
0 -9.00866 18.5447 979173
0 -8.52027 18.6518 979063
0 -8.03188 18.7589 978957
0 -7.54349 18.866 978853
0 -7.0551 18.9732 978765
0 -6.56671 19.0803 978687
0 -6.07831 19.1874 978613
0 -5.58992 19.2945 978544
0 -5.10153 19.4016 978459
0 -4.61314 19.5087 978330
0 -4.12475 19.6159 978235
0 -3.63636 19.723 978143
0 -3.14797 19.8301 978033
0 -2.65957 19.9372 977914
0 -2.17118 20.0443 977787
0 -1.68279 20.1514 977651
0 -1.1944 20.2586 977510
0 -0.706008 20.3657 977369
0 -0.217617 20.4728 977231
0 0.270775 20.5799 977099
0 0.759166 20.687 976952
0 1.24756 20.7941 976788
0 1.73595 20.9012 976610
0 2.22434 21.0084 976381
0 2.71273 21.1155 976190
0 3.20112 21.2226 975969
0 3.68951 21.3297 975730
0 4.17791 21.4368 975485
0 4.6663 21.5439 975260
0 5.15469 21.6511 974695
0 -21.4446 6.00609 990274
0 -20.8091 6.9986 988899
0 -20.1736 7.99112 987648
0 -19.5382 8.98363 986787
0 -18.9027 9.97614 985812
0 -18.2673 10.9687 984895
0 -17.6318 11.9612 984319
0 -16.9963 12.9537 983682
0 -16.3609 13.9462 983092
0 -15.7254 14.9387 982629
0 -15.09 15.9312 982227
0 -14.4545 16.9237 981284
0 -18.6492 -8.68404 1.28073e+06
0 -18.8501 -7.76831 1.22813e+06
0 -19.0509 -6.85257 1.18919e+06
0 -19.2518 -5.93684 1.15879e+06
0 -19.4526 -5.02111 1.12757e+06
0 -19.6534 -4.10537 1.09347e+06
0 -19.8543 -3.18964 1.06342e+06
0 -20.0551 -2.2739 1.04379e+06
0 -20.256 -1.35817 1.02738e+06
0 -20.4568 -0.442436 1.01287e+06
0 -20.6577 0.473298 999150
0 -20.8585 1.38903 994381
0 -21.0593 2.30477 992862
0 -21.2602 3.2205 992635
0 -21.461 4.13623 992126
0 -21.6619 5.05197 991371
0 -13.09 -12.6369 1.53014e+06
0 -14.0825 -12.0015 1.43515e+06
0 -15.075 -11.366 1.42628e+06
0 -16.0675 -10.7306 1.38628e+06
0 -17.06 -10.0951 1.34365e+06
0 -18.0526 -9.45964 1.32401e+06
