# p  FACE_DATA 148
#  x  y  z  p
0 -12.8069 -12.3508 1.52811e+06
0 -12.0677 -12.2241 1.49846e+06
0 -11.3285 -12.0975 1.48989e+06
0 -10.5892 -11.9708 1.47234e+06
0 -9.85002 -11.8442 1.45365e+06
0 -9.11079 -11.7175 1.43589e+06
0 -8.37156 -11.5908 1.41536e+06
0 -7.63233 -11.4642 1.38714e+06
0 -6.8931 -11.3375 1.3555e+06
0 -6.15388 -11.2109 1.32373e+06
0 -5.41465 -11.0842 1.29391e+06
0 -4.67542 -10.9576 1.26535e+06
0 -3.93619 -10.8309 1.23663e+06
0 -3.19696 -10.7043 1.20896e+06
0 -2.45774 -10.5776 1.18302e+06
0 -1.71851 -10.4509 1.16089e+06
0 -0.97928 -10.3243 1.14535e+06
0 -0.240052 -10.1976 1.1304e+06
0 0.499176 -10.071 1.10511e+06
0 1.2384 -9.94431 1.06942e+06
0 1.97763 -9.81766 1.03941e+06
0 2.71686 -9.691 1.01608e+06
0 3.45609 -9.56435 995333
0 4.19532 -9.43769 970126
0 4.93454 -9.31103 944579
0 5.67377 -9.18438 921580
0 6.413 -9.05772 900465
0 7.15223 -8.93106 880195
0 7.89146 -8.80441 863236
0 8.63069 -8.67775 847067
0 9.36991 -8.55109 830173
0 10.1091 -8.42444 818860
0 10.8484 -8.29778 807035
0 11.5876 -8.17113 796037
0 12.3268 -8.04447 786725
0 13.0661 -7.91781 780002
0 13.8053 -7.79116 776093
0 14.5445 -7.6645 775121
0 15.2837 -7.53784 777300
0 16.023 -7.41119 780823
0 16.7329 -6.86681 775714
0 17.4135 -5.90472 834132
0 18.0942 -4.94262 839336
0 18.7748 -3.98053 853375
0 19.4554 -3.01844 871285
0 20.1361 -2.05634 894212
0 20.3972 -1.11328 939864
0 20.2389 -0.189244 956006
0 20.0806 0.734792 958396
0 19.9223 1.65883 954096
0 19.7639 2.58286 946066
0 19.6056 3.5069 938440
0 19.4473 4.43093 933608
0 19.289 5.35497 943706
0 19.1307 6.279 966263
0 18.9723 7.20304 968852
0 18.814 8.12707 969506
0 18.6557 9.05111 969908
0 18.4974 9.97514 970469
0 18.3391 10.8992 972170
0 18.1807 11.8232 973661
0 18.0224 12.7472 974161
0 17.4622 13.5496 977556
0 16.5001 14.2302 981542
0 15.538 14.9109 980354
0 14.5759 15.5915 977124
0 13.6138 16.2721 976258
0 12.6517 16.9528 976607
0 11.6897 17.6334 977085
0 10.7276 18.314 977454
0 9.76547 18.9947 977836
0 8.80337 19.6753 978359
0 7.84128 20.3559 978946
0 6.87919 21.0366 979954
0 -13.0682 18.0416 983101
0 -12.5754 18.126 982793
0 -12.0826 18.2105 982731
0 -11.5897 18.2949 982693
0 -11.0969 18.3794 982499
0 -10.6041 18.4638 982455
0 -10.1113 18.5482 982430
0 -9.61847 18.6327 982347
0 -9.12565 18.7171 982258
0 -8.63283 18.8015 981046
0 -8.14001 18.886 981420
0 -7.64719 18.9704 981298
0 -7.15438 19.0549 981328
0 -6.66156 19.1393 981407
0 -6.16874 19.2237 981507
0 -5.67592 19.3082 981603
0 -5.1831 19.3926 981673
0 -4.69028 19.477 981715
0 -4.19746 19.5615 981739
0 -3.70464 19.6459 981759
0 -3.21183 19.7304 981796
0 -2.71901 19.8148 981828
0 -2.22619 19.8992 982066
0 -1.73337 19.9837 981994
0 -1.24055 20.0681 981889
0 -0.747733 20.1525 981733
0 -0.254914 20.237 981526
0 0.237905 20.3214 981320
0 0.730724 20.4059 981125
0 1.22354 20.4903 980962
0 1.71636 20.5747 980827
0 2.20918 20.6592 980705
0 2.702 20.7436 980637
0 3.19482 20.828 980608
0 3.68764 20.9125 980574
0 4.18045 20.9969 980521
0 4.67327 21.0814 980472
0 5.16609 21.1658 980457
0 5.65891 21.2502 980452
0 6.15173 21.3347 979874
0 -21.1419 6.93531 1.00973e+06
0 -20.4613 7.8974 996623
0 -19.7806 8.85949 986688
0 -19.1 9.82159 986058
0 -18.4194 10.7837 989088
0 -17.7387 11.7458 992142
0 -17.0581 12.7079 991933
0 -16.3775 13.67 986205
0 -15.6968 14.6321 986556
0 -15.0162 15.5942 987988
0 -14.3356 16.5562 984970
0 -13.6549 17.5183 983160
0 -19.0283 -7.86828 1.29922e+06
0 -19.1866 -6.94425 1.24478e+06
0 -19.3449 -6.02021 1.20216e+06
0 -19.5032 -5.09618 1.17913e+06
0 -19.6615 -4.17214 1.16564e+06
0 -19.8199 -3.24811 1.12159e+06
0 -19.9782 -2.32407 1.07891e+06
0 -20.1365 -1.40004 1.05211e+06
0 -20.2948 -0.476003 1.03288e+06
0 -20.4532 0.448032 1.02077e+06
0 -20.6115 1.37207 1.01667e+06
0 -20.7698 2.2961 1.0144e+06
0 -20.9281 3.22014 1.01385e+06
0 -21.0864 4.14417 1.01334e+06
0 -21.2448 5.06821 1.01169e+06
0 -21.4031 5.99224 1.02233e+06
0 -13.6576 -12.0738 1.5254e+06
0 -14.6197 -11.3932 1.45555e+06
0 -15.5818 -10.7125 1.42407e+06
0 -16.5439 -10.0319 1.39622e+06
0 -17.506 -9.35125 1.37796e+06
0 -18.4681 -8.67062 1.36151e+06
