# p  FACE_DATA 148
#  x  y  z  p
0 -16.2662 -7.09558 979464
0 -15.5302 -7.23983 975541
0 -14.7942 -7.38408 976745
0 -14.0582 -7.52833 976878
0 -13.3222 -7.67258 976870
0 -12.5862 -7.81682 976915
0 -11.8503 -7.96107 977188
0 -11.1143 -8.10532 978135
0 -10.3783 -8.24957 980319
0 -9.64226 -8.39382 983703
0 -8.90626 -8.53807 987801
0 -8.17027 -8.68232 992546
0 -7.43427 -8.82657 998529
0 -6.69827 -8.97082 1.0061e+06
0 -5.96227 -9.11507 1.01458e+06
0 -5.22628 -9.25932 1.0235e+06
0 -4.49028 -9.40357 1.03277e+06
0 -3.75428 -9.54782 1.04215e+06
0 -3.01828 -9.69207 1.05275e+06
0 -2.28229 -9.83632 1.06477e+06
0 -1.54629 -9.98056 1.07857e+06
0 -0.810292 -10.1248 1.09563e+06
0 -0.0742947 -10.2691 1.11466e+06
0 0.661703 -10.4133 1.13253e+06
0 1.3977 -10.5576 1.14572e+06
0 2.1337 -10.7018 1.15614e+06
0 2.86969 -10.8461 1.16894e+06
0 3.60569 -10.9903 1.18384e+06
0 4.34169 -11.1346 1.19838e+06
0 5.07769 -11.2788 1.21309e+06
0 5.81368 -11.4231 1.22758e+06
0 6.54968 -11.5673 1.24178e+06
0 7.28568 -11.7116 1.25577e+06
0 8.02168 -11.8558 1.26932e+06
0 8.75767 -12.0001 1.28219e+06
0 9.49367 -12.1443 1.29415e+06
0 10.2297 -12.2886 1.30506e+06
0 10.9657 -12.4328 1.31559e+06
0 11.7017 -12.5771 1.31693e+06
0 12.4377 -12.7213 1.33494e+06
0 13.2947 -12.4647 1.33235e+06
0 14.2727 -11.8072 1.30669e+06
0 15.2508 -11.1497 1.28666e+06
0 16.2288 -10.4922 1.26712e+06
0 17.2069 -9.83469 1.24662e+06
0 18.1849 -9.17719 1.22265e+06
0 18.7641 -8.38844 1.19254e+06
0 18.9444 -7.46845 1.16544e+06
0 19.1247 -6.54845 1.13669e+06
0 19.3051 -5.62845 1.10625e+06
0 19.4854 -4.70846 1.07478e+06
0 19.6657 -3.78846 1.0338e+06
0 19.846 -2.86846 1.01273e+06
0 20.0263 -1.94846 1.01022e+06
0 20.2066 -1.02847 1.00994e+06
0 20.3869 -0.108472 1.00967e+06
0 20.5672 0.811525 1.0093e+06
0 20.7476 1.73152 1.00895e+06
0 20.9279 2.65152 1.00861e+06
0 21.1082 3.57152 1.0083e+06
0 21.2885 4.49151 1.00801e+06
0 21.4688 5.41151 1.00771e+06
0 21.2302 6.36053 1.00733e+06
0 20.5727 7.33858 1.00677e+06
0 19.9152 8.31664 1.00627e+06
0 19.2577 9.29469 1.00589e+06
0 18.6002 10.2727 1.00558e+06
0 17.9427 11.2508 1.00532e+06
0 17.2852 12.2288 1.0051e+06
0 16.6277 13.2069 1.00491e+06
0 15.9702 14.1849 1.00472e+06
0 15.3127 15.163 1.00448e+06
0 14.6552 16.1411 1.0042e+06
0 13.9977 17.1191 1.00385e+06
0 -5.71228 21.4067 1.0016e+06
0 -5.22162 21.3105 1.00169e+06
0 -4.73095 21.2144 1.00178e+06
0 -4.24029 21.1182 1.00185e+06
0 -3.74962 21.022 1.00192e+06
0 -3.25896 20.9259 1.00198e+06
0 -2.76829 20.8297 1.00203e+06
0 -2.27763 20.7335 1.00208e+06
0 -1.78696 20.6374 1.00211e+06
0 -1.2963 20.5412 1.00215e+06
0 -0.805631 20.445 1.00218e+06
0 -0.314966 20.3489 1.00221e+06
0 0.175699 20.2527 1.00225e+06
0 0.666364 20.1565 1.00228e+06
0 1.15703 20.0604 1.00231e+06
0 1.64769 19.9642 1.00232e+06
0 2.13836 19.868 1.00232e+06
0 2.62902 19.7719 1.00232e+06
0 3.11969 19.6757 1.00233e+06
0 3.61035 19.5795 1.00235e+06
0 4.10102 19.4834 1.00236e+06
0 4.59168 19.3872 1.00239e+06
0 5.08235 19.291 1.00241e+06
0 5.57301 19.1949 1.00245e+06
0 6.06368 19.0987 1.0025e+06
0 6.55434 19.0025 1.00255e+06
0 7.04501 18.9064 1.0026e+06
0 7.53567 18.8102 1.00266e+06
0 8.02634 18.714 1.00272e+06
0 8.517 18.6179 1.00279e+06
0 9.00767 18.5217 1.00287e+06
0 9.49833 18.4255 1.00296e+06
0 9.989 18.3294 1.00305e+06
0 10.4797 18.2332 1.00314e+06
0 10.9703 18.137 1.00324e+06
0 11.461 18.0409 1.00335e+06
0 11.9517 17.9447 1.00345e+06
0 12.4423 17.8485 1.00356e+06
0 12.933 17.7524 1.00365e+06
0 13.4237 17.6562 1.00379e+06
0 -17.2052 13.8936 1.0006e+06
0 -16.2272 14.5511 1.00071e+06
0 -15.2491 15.2086 1.00084e+06
0 -14.2711 15.866 1.00096e+06
0 -13.293 16.5235 1.00104e+06
0 -12.3149 17.181 1.00104e+06
0 -11.3369 17.8385 1.00103e+06
0 -10.3588 18.496 1.00107e+06
0 -9.38079 19.1535 1.00113e+06
0 -8.40274 19.811 1.00127e+06
0 -7.42469 20.4685 1.00144e+06
0 -6.44664 21.126 1.00163e+06
0 -20.4891 -0.695143 1.03992e+06
0 -20.3088 0.224853 1.04865e+06
0 -20.1284 1.14485 1.04761e+06
0 -19.9481 2.06485 1.03853e+06
0 -19.7678 2.98484 1.02558e+06
0 -19.5875 3.90484 1.01497e+06
0 -19.4072 4.82484 1.00974e+06
0 -19.2269 5.74483 1.00593e+06
0 -19.0466 6.66483 1.00122e+06
0 -18.8663 7.58483 1.00114e+06
0 -18.6859 8.50482 1.00093e+06
0 -18.5056 9.42482 1.00064e+06
0 -18.3253 10.3448 1.00047e+06
0 -18.145 11.2648 1.00041e+06
0 -17.9647 12.1848 1.00043e+06
0 -17.7844 13.1048 1.00048e+06
0 -16.963 -6.53443 973815
0 -17.6205 -5.55638 987049
0 -18.278 -4.57832 995415
0 -18.9355 -3.60027 1.0035e+06
0 -19.593 -2.62222 1.01193e+06
0 -20.2505 -1.64417 1.02247e+06
