# p  FACE_DATA 148
#  x  y  z  p
0 -14.0708 -10.629 1.1158e+06
0 -13.3218 -10.5914 1.10334e+06
0 -12.5727 -10.5539 1.09539e+06
0 -11.8237 -10.5163 1.08512e+06
0 -11.0746 -10.4788 1.07223e+06
0 -10.3255 -10.4412 1.0604e+06
0 -9.57648 -10.4037 1.04946e+06
0 -8.82742 -10.3661 1.03992e+06
0 -8.07836 -10.3286 1.03147e+06
0 -7.3293 -10.291 1.02409e+06
0 -6.58024 -10.2535 1.01686e+06
0 -5.83118 -10.2159 1.01288e+06
0 -5.08212 -10.1784 1.00763e+06
0 -4.33306 -10.1408 1.00031e+06
0 -3.584 -10.1033 992134
0 -2.83494 -10.0657 984762
0 -2.08588 -10.0282 980788
0 -1.33682 -9.99061 978576
0 -0.587763 -9.95306 971258
0 0.161297 -9.91552 959337
0 0.910356 -9.87797 950885
0 1.65942 -9.84042 944866
0 2.40848 -9.80287 941725
0 3.15753 -9.76532 940868
0 3.90659 -9.72777 943777
0 4.65565 -9.69022 950471
0 5.40471 -9.65267 958349
0 6.15377 -9.61512 967228
0 6.90283 -9.57757 975396
0 7.65189 -9.54002 982357
0 8.40095 -9.50247 989475
0 9.15001 -9.46492 996272
0 9.89907 -9.42737 1.00238e+06
0 10.6481 -9.38982 1.00963e+06
0 11.3972 -9.35227 1.02023e+06
0 12.1462 -9.31472 1.03298e+06
0 12.8953 -9.27718 1.04386e+06
0 13.6444 -9.23963 1.05215e+06
0 14.3934 -9.20208 1.06347e+06
0 15.1425 -9.16453 1.08539e+06
0 15.9123 -8.70875 1.0808e+06
0 16.7029 -7.83474 1.07675e+06
0 17.4934 -6.96073 1.06888e+06
0 18.284 -6.08672 1.0626e+06
0 19.0746 -5.21271 1.07439e+06
0 19.8651 -4.3387 1.10049e+06
0 20.2369 -3.43353 1.06019e+06
0 20.19 -2.49721 1.02845e+06
0 20.1431 -1.56088 1.0218e+06
0 20.0961 -0.624558 1.02071e+06
0 20.0492 0.311766 1.0191e+06
0 20.0023 1.24809 1.00708e+06
0 19.9553 2.18441 1.01309e+06
0 19.9084 3.12074 1.00678e+06
0 19.8615 4.05706 1.0057e+06
0 19.8145 4.99339 1.00688e+06
0 19.7676 5.92971 1.00766e+06
0 19.7206 6.86604 1.00723e+06
0 19.6737 7.80236 998150
0 19.6268 8.73869 992016
0 19.5798 9.67501 991051
0 19.5329 10.6113 990378
0 19.0724 11.4748 989653
0 18.1984 12.2653 989426
0 17.3244 13.0559 989272
0 16.4504 13.8465 988840
0 15.5764 14.637 988012
0 14.7024 15.4276 986977
0 13.8284 16.2182 986035
0 12.9544 17.0087 985459
0 12.0803 17.7993 985815
0 11.2063 18.5899 986219
0 10.3323 19.3804 986657
0 9.45831 20.171 986740
0 -10.7039 19.5775 987423
0 -10.2046 19.6025 987457
0 -9.70518 19.6276 987331
0 -9.2058 19.6526 987162
0 -8.70643 19.6776 987007
0 -8.20706 19.7027 986872
0 -7.70769 19.7277 986763
0 -7.20831 19.7527 986668
0 -6.70894 19.7778 986611
0 -6.20957 19.8028 986584
0 -5.71019 19.8278 986573
0 -5.21082 19.8529 986563
0 -4.71145 19.8779 986532
0 -4.21207 19.9029 986493
0 -3.7127 19.928 986458
0 -3.21333 19.953 986417
0 -2.71396 19.978 986368
0 -2.21458 20.0031 986316
0 -1.71521 20.0281 986218
0 -1.21584 20.0531 986244
0 -0.716464 20.0782 986248
0 -0.217091 20.1032 986210
0 0.282282 20.1282 986190
0 0.781655 20.1533 986180
0 1.28103 20.1783 986176
0 1.7804 20.2033 986177
0 2.27977 20.2284 986171
0 2.77915 20.2534 986152
0 3.27852 20.2784 986133
0 3.77789 20.3034 986110
0 4.27727 20.3285 986084
0 4.77664 20.3535 986092
0 5.27601 20.3785 986028
0 5.77538 20.4036 985941
0 6.27476 20.4286 986121
0 6.77413 20.4536 986255
0 7.2735 20.4787 986368
0 7.77288 20.5037 986481
0 8.27225 20.5287 986542
0 8.77162 20.5538 986691
0 -20.0451 9.51386 989101
0 -19.2546 10.3879 988773
0 -18.464 11.2619 988420
0 -17.6734 12.1359 988163
0 -16.8829 13.0099 987970
0 -16.0923 13.8839 987799
0 -15.3017 14.7579 987635
0 -14.5112 15.6319 987503
0 -13.7206 16.5059 987428
0 -12.93 17.38 987410
0 -12.1395 18.254 987408
0 -11.3489 19.128 987575
0 -19.7129 -5.43617 1.08076e+06
0 -19.7598 -4.49984 1.0643e+06
0 -19.8068 -3.56352 1.03899e+06
0 -19.8537 -2.62719 1.01773e+06
0 -19.9006 -1.69087 1.00348e+06
0 -19.9476 -0.754546 996473
0 -19.9945 0.181779 993086
0 -20.0414 1.1181 992295
0 -20.0884 2.05443 990987
0 -20.1353 2.99075 988792
0 -20.1823 3.92708 976954
0 -20.2292 4.8634 974596
0 -20.2761 5.79972 990364
0 -20.3231 6.73605 989195
0 -20.37 7.67237 989334
0 -20.4169 8.6087 989189
0 -14.8824 -10.2524 1.11358e+06
0 -15.7564 -9.46188 1.12016e+06
0 -16.6304 -8.67131 1.11229e+06
0 -17.5044 -7.88075 1.09964e+06
0 -18.3784 -7.09018 1.09174e+06
0 -19.2524 -6.29961 1.08448e+06
