# p  FACE_DATA 148
#  x  y  z  p
0 -12.1474 -12.873 1.45492e+06
0 -11.4152 -12.7103 1.44038e+06
0 -10.6831 -12.5477 1.43582e+06
0 -9.95091 -12.385 1.42653e+06
0 -9.21876 -12.2224 1.42447e+06
0 -8.48661 -12.0597 1.40868e+06
0 -7.75446 -11.8971 1.39111e+06
0 -7.02231 -11.7344 1.37055e+06
0 -6.29016 -11.5717 1.347e+06
0 -5.55801 -11.4091 1.32337e+06
0 -4.82586 -11.2464 1.3e+06
0 -4.09371 -11.0838 1.2766e+06
0 -3.36156 -10.9211 1.25292e+06
0 -2.62941 -10.7585 1.22865e+06
0 -1.89726 -10.5958 1.20308e+06
0 -1.16511 -10.4332 1.17754e+06
0 -0.432955 -10.2705 1.15523e+06
0 0.299195 -10.1079 1.13435e+06
0 1.03135 -9.94521 1.11173e+06
0 1.7635 -9.78255 1.08385e+06
0 2.49565 -9.6199 1.05309e+06
0 3.2278 -9.45725 1.02421e+06
0 3.95995 -9.29459 999170
0 4.6921 -9.13194 974570
0 5.42425 -8.96928 950301
0 6.1564 -8.80663 925868
0 6.88855 -8.64397 901521
0 7.6207 -8.48132 879746
0 8.35285 -8.31867 864303
0 9.085 -8.15601 860037
0 9.81715 -7.99336 843991
0 10.5493 -7.8307 813485
0 11.2814 -7.66805 796707
0 12.0136 -7.5054 781720
0 12.7457 -7.34274 768183
0 13.4779 -7.18009 755852
0 14.21 -7.01743 745637
0 14.9422 -6.85478 730425
0 15.6743 -6.69213 727280
0 16.4065 -6.52947 721444
0 17.089 -5.95103 716330
0 17.7217 -4.9568 761878
0 18.3545 -3.96258 773715
0 18.9873 -2.96835 796941
0 19.6201 -1.97412 819674
0 20.2528 -0.979898 849248
0 20.4676 -0.0251907 890358
0 20.2642 0.889997 927213
0 20.0609 1.80518 933730
0 19.8576 2.72037 936548
0 19.6543 3.63556 942391
0 19.451 4.55075 945315
0 19.2476 5.46593 944347
0 19.0443 6.38112 945019
0 18.841 7.29631 944930
0 18.6377 8.2115 964204
0 18.4344 9.12668 966606
0 18.2311 10.0419 968130
0 18.0277 10.9571 971067
0 17.8244 11.8722 975524
0 17.6211 12.7874 977695
0 17.4178 13.7026 978598
0 16.819 14.4766 979445
0 15.8248 15.1094 980119
0 14.8306 15.7421 980623
0 13.8363 16.3749 980798
0 12.8421 17.0077 980885
0 11.8479 17.6405 981082
0 10.8537 18.2732 981444
0 9.85943 18.906 981835
0 8.8652 19.5388 982189
0 7.87098 20.1716 982554
0 6.87675 20.8043 982775
0 5.88252 21.4371 983574
0 -13.8945 17.4703 989101
0 -13.4064 17.5787 988734
0 -12.9183 17.6871 988665
0 -12.4302 17.7956 988510
0 -11.9421 17.904 988373
0 -11.454 18.0125 988235
0 -10.9659 18.1209 988086
0 -10.4778 18.2293 987934
0 -9.98974 18.3378 987794
0 -9.50164 18.4462 987617
0 -9.01354 18.5546 987488
0 -8.52544 18.6631 987418
0 -8.03734 18.7715 987337
0 -7.54924 18.8799 987249
0 -7.06114 18.9884 987160
0 -6.57304 19.0968 987071
0 -6.08494 19.2052 986979
0 -5.59684 19.3137 986887
0 -5.10874 19.4221 986760
0 -4.62064 19.5306 986667
0 -4.13254 19.639 986598
0 -3.64444 19.7474 986521
0 -3.15634 19.8559 986440
0 -2.66824 19.9643 986355
0 -2.18014 20.0727 986267
0 -1.69204 20.1812 986177
0 -1.20394 20.2896 986084
0 -0.715842 20.398 985983
0 -0.227742 20.5065 985863
0 0.260358 20.6149 985721
0 0.748458 20.7234 985592
0 1.23656 20.8318 985456
0 1.72466 20.9402 985304
0 2.21276 21.0487 985016
0 2.70086 21.1571 984822
0 3.18896 21.2655 984600
0 3.67706 21.374 984389
0 4.16516 21.4824 984144
0 4.65326 21.5908 983937
0 5.14136 21.6993 983545
0 -21.4155 5.98245 1.00683e+06
0 -20.7827 6.97667 996270
0 -20.1499 7.9709 993114
0 -19.5172 8.96513 992781
0 -18.8844 9.95935 992899
0 -18.2516 10.9536 992923
0 -17.6188 11.9478 992750
0 -16.9861 12.942 992394
0 -16.3533 13.9363 991943
0 -15.7205 14.9305 990960
0 -15.0878 15.9247 990358
0 -14.455 16.9189 989429
0 -18.5804 -8.70007 1.22705e+06
0 -18.7838 -7.78489 1.17755e+06
0 -18.9871 -6.8697 1.13957e+06
0 -19.1904 -5.95451 1.10936e+06
0 -19.3937 -5.03932 1.07776e+06
0 -19.597 -4.12414 1.0396e+06
0 -19.8004 -3.20895 1.0299e+06
0 -20.0037 -2.29376 1.02547e+06
0 -20.207 -1.37857 1.0224e+06
0 -20.4103 -0.463386 1.0217e+06
0 -20.6136 0.451802 1.02123e+06
0 -20.8169 1.36699 1.0189e+06
0 -21.0203 2.28218 1.01453e+06
0 -21.2236 3.19736 1.0151e+06
0 -21.4269 4.11255 1.03031e+06
0 -21.6302 5.02774 1.04579e+06
0 -13.0105 -12.6379 1.45255e+06
0 -14.0048 -12.0051 1.36937e+06
0 -14.999 -11.3724 1.36102e+06
0 -15.9932 -10.7396 1.33828e+06
0 -16.9875 -10.1068 1.31863e+06
0 -17.9817 -9.47405 1.29058e+06
