# p  FACE_DATA 148
#  x  y  z  p
0 -12.1565 -13.0217 1.35018e+06
0 -11.4244 -12.8591 1.34213e+06
0 -10.6922 -12.6966 1.34467e+06
0 -9.96 -12.5341 1.33685e+06
0 -9.22782 -12.3715 1.32889e+06
0 -8.49564 -12.209 1.31862e+06
0 -7.76347 -12.0465 1.30698e+06
0 -7.03129 -11.8839 1.29437e+06
0 -6.29911 -11.7214 1.28102e+06
0 -5.56693 -11.5589 1.26709e+06
0 -4.83476 -11.3964 1.25273e+06
0 -4.10258 -11.2338 1.23799e+06
0 -3.3704 -11.0713 1.22308e+06
0 -2.63823 -10.9088 1.208e+06
0 -1.90605 -10.7462 1.19284e+06
0 -1.17387 -10.5837 1.17763e+06
0 -0.441695 -10.4212 1.16241e+06
0 0.290482 -10.2586 1.14699e+06
0 1.02266 -10.0961 1.13161e+06
0 1.75484 -9.93356 1.1162e+06
0 2.48701 -9.77103 1.10099e+06
0 3.21919 -9.60849 1.08619e+06
0 3.95137 -9.44596 1.07142e+06
0 4.68354 -9.28343 1.05679e+06
0 5.41572 -9.1209 1.04241e+06
0 6.1479 -8.95836 1.02829e+06
0 6.88008 -8.79583 1.01448e+06
0 7.61225 -8.6333 1.00108e+06
0 8.34443 -8.47077 988142
0 9.07661 -8.30824 975741
0 9.80878 -8.1457 963947
0 10.541 -7.98317 952860
0 11.2731 -7.82064 942548
0 12.0053 -7.65811 932958
0 12.7375 -7.49557 924223
0 13.4697 -7.33304 916929
0 14.2018 -7.17051 911733
0 14.934 -7.00798 907990
0 15.6662 -6.84544 903959
0 16.3984 -6.68291 900059
0 17.0809 -6.10458 894227
0 17.7139 -5.11046 918396
0 18.3468 -4.11634 922186
0 18.9797 -3.12222 932211
0 19.6127 -2.1281 940959
0 20.2456 -1.13398 953409
0 20.4605 -0.179304 976067
0 20.2573 0.735917 993630
0 20.0542 1.65114 1.00132e+06
0 19.851 2.56636 1.0006e+06
0 19.6479 3.48158 1.00057e+06
0 19.4447 4.3968 1.00068e+06
0 19.2415 5.31202 1.00072e+06
0 19.0384 6.22725 1.00074e+06
0 18.8352 7.14247 1.00076e+06
0 18.632 8.05769 1.00077e+06
0 18.4289 8.97291 1.00078e+06
0 18.2257 9.88813 1.00078e+06
0 18.0225 10.8034 1.00079e+06
0 17.8194 11.7186 1.00082e+06
0 17.6162 12.6338 1.00091e+06
0 17.413 13.549 1.00095e+06
0 16.8144 14.3231 1.00127e+06
0 15.8203 14.956 1.0014e+06
0 14.8261 15.589 1.00148e+06
0 13.832 16.2219 1.00154e+06
0 12.8379 16.8548 1.00156e+06
0 11.8438 17.4878 1.00157e+06
0 10.8497 18.1207 1.00156e+06
0 9.85553 18.7537 1.00156e+06
0 8.86141 19.3866 1.00157e+06
0 7.86729 20.0195 1.00164e+06
0 6.87317 20.6525 1.00165e+06
0 5.87905 21.2854 1.0019e+06
0 -13.8987 17.3219 1.00321e+06
0 -13.4106 17.4302 1.00303e+06
0 -12.9224 17.5386 1.00299e+06
0 -12.4343 17.6469 1.00288e+06
0 -11.9462 17.7553 1.00281e+06
0 -11.4581 17.8636 1.00275e+06
0 -10.97 17.972 1.0027e+06
0 -10.4818 18.0804 1.00264e+06
0 -9.99373 18.1887 1.0026e+06
0 -9.50561 18.2971 1.00257e+06
0 -9.01749 18.4054 1.00254e+06
0 -8.52938 18.5138 1.00252e+06
0 -8.04126 18.6221 1.0025e+06
0 -7.55314 18.7305 1.00249e+06
0 -7.06502 18.8388 1.00249e+06
0 -6.5769 18.9472 1.00249e+06
0 -6.08879 19.0555 1.0025e+06
0 -5.60067 19.1639 1.0025e+06
0 -5.11255 19.2723 1.00251e+06
0 -4.62443 19.3806 1.00252e+06
0 -4.13631 19.489 1.00252e+06
0 -3.6482 19.5973 1.00253e+06
0 -3.16008 19.7057 1.00253e+06
0 -2.67196 19.814 1.00253e+06
0 -2.18384 19.9224 1.00253e+06
0 -1.69572 20.0307 1.00253e+06
0 -1.20761 20.1391 1.00252e+06
0 -0.719488 20.2475 1.00251e+06
0 -0.23137 20.3558 1.0025e+06
0 0.256748 20.4642 1.00248e+06
0 0.744866 20.5725 1.00246e+06
0 1.23298 20.6809 1.00244e+06
0 1.7211 20.7892 1.00241e+06
0 2.20922 20.8976 1.00237e+06
0 2.69734 21.0059 1.00232e+06
0 3.18546 21.1143 1.00226e+06
0 3.67357 21.2226 1.00219e+06
0 4.16169 21.331 1.00211e+06
0 4.64981 21.4394 1.00205e+06
0 5.13793 21.5477 1.00187e+06
0 -21.4215 5.83529 1.00595e+06
0 -20.7886 6.82941 1.00561e+06
0 -20.1556 7.82353 1.00533e+06
0 -19.5227 8.81765 1.0051e+06
0 -18.8898 9.81178 1.0049e+06
0 -18.2568 10.8059 1.00471e+06
0 -17.6239 11.8 1.00453e+06
0 -16.991 12.7941 1.00435e+06
0 -16.358 13.7883 1.00415e+06
0 -15.7251 14.7824 1.00392e+06
0 -15.0921 15.7765 1.00375e+06
0 -14.4592 16.7706 1.00327e+06
0 -18.5889 -8.8477 1.18942e+06
0 -18.7921 -7.93248 1.16051e+06
0 -18.9953 -7.01726 1.13193e+06
0 -19.1984 -6.10204 1.11156e+06
0 -19.4016 -5.18682 1.08923e+06
0 -19.6048 -4.27159 1.06821e+06
0 -19.8079 -3.35637 1.04787e+06
0 -20.0111 -2.44115 1.0252e+06
0 -20.2143 -1.52593 1.01016e+06
0 -20.4174 -0.61071 1.00795e+06
0 -20.6206 0.304512 1.00776e+06
0 -20.8237 1.21973 1.00752e+06
0 -21.0269 2.13495 1.0073e+06
0 -21.2301 3.05018 1.00706e+06
0 -21.4332 3.9654 1.00679e+06
0 -21.6364 4.88062 1.00646e+06
0 -13.0197 -12.7865 1.3478e+06
0 -14.0138 -12.1535 1.3092e+06
0 -15.0079 -11.5206 1.29408e+06
0 -16.002 -10.8877 1.2734e+06
0 -16.9962 -10.2547 1.25522e+06
0 -17.9903 -9.62178 1.23388e+06
