# p  FACE_DATA 148
#  x  y  z  p
0 -15.8779 -7.82172 843984
0 -15.1356 -7.92905 840752
0 -14.3933 -8.03638 836693
0 -13.651 -8.14371 843669
0 -12.9088 -8.25104 842457
0 -12.1665 -8.35838 841666
0 -11.4242 -8.46571 847042
0 -10.6819 -8.57304 853005
0 -9.93965 -8.68037 862492
0 -9.19737 -8.7877 873649
0 -8.45509 -8.89503 887236
0 -7.71281 -9.00237 902815
0 -6.97053 -9.1097 917272
0 -6.22825 -9.21703 932230
0 -5.48597 -9.32436 949466
0 -4.74369 -9.43169 966621
0 -4.00141 -9.53902 984311
0 -3.25913 -9.64636 1.00247e+06
0 -2.51685 -9.75369 1.02153e+06
0 -1.77457 -9.86102 1.04276e+06
0 -1.03229 -9.96835 1.06572e+06
0 -0.290005 -10.0757 1.08652e+06
0 0.452275 -10.183 1.10288e+06
0 1.19456 -10.2903 1.12802e+06
0 1.93684 -10.3977 1.1469e+06
0 2.67912 -10.505 1.16031e+06
0 3.4214 -10.6123 1.17488e+06
0 4.16368 -10.7197 1.19412e+06
0 4.90596 -10.827 1.21456e+06
0 5.64824 -10.9343 1.23486e+06
0 6.39052 -11.0417 1.25493e+06
0 7.1328 -11.149 1.27733e+06
0 7.87508 -11.2563 1.30218e+06
0 8.61736 -11.3637 1.32434e+06
0 9.35964 -11.471 1.34307e+06
0 10.1019 -11.5783 1.35959e+06
0 10.8442 -11.6857 1.37351e+06
0 11.5865 -11.793 1.38739e+06
0 12.3288 -11.9003 1.40103e+06
0 13.071 -12.0077 1.4246e+06
0 13.9142 -11.7086 1.42162e+06
0 14.8582 -11.0031 1.37738e+06
0 15.8022 -10.2976 1.35359e+06
0 16.7462 -9.59208 1.33606e+06
0 17.6902 -8.88658 1.31742e+06
0 18.6343 -8.18108 1.28739e+06
0 19.1733 -7.36441 1.25575e+06
0 19.3075 -6.43655 1.22042e+06
0 19.4417 -5.5087 1.17398e+06
0 19.5758 -4.58085 1.13987e+06
0 19.71 -3.653 1.12076e+06
0 19.8442 -2.72515 1.08655e+06
0 19.9783 -1.7973 1.07045e+06
0 20.1125 -0.869453 1.06851e+06
0 20.2467 0.058397 1.06792e+06
0 20.3808 0.986247 1.06517e+06
0 20.515 1.9141 1.04426e+06
0 20.6492 2.84195 1.0143e+06
0 20.7833 3.7698 1.00941e+06
0 20.9175 4.69765 1.00578e+06
0 21.0516 5.6255 1.00351e+06
0 21.1858 6.55335 993746
0 20.9001 7.48928 990908
0 20.1946 8.43329 990128
0 19.4891 9.37731 989508
0 18.7836 10.3213 988350
0 18.0782 11.2653 986191
0 17.3727 12.2093 984620
0 16.6672 13.1534 984544
0 15.9617 14.0974 984434
0 15.2562 15.0414 984022
0 14.5507 15.9854 983678
0 13.8452 16.9294 983575
0 13.1397 17.8734 982869
0 -6.7598 21.1718 979102
0 -6.26495 21.1003 979765
0 -5.77009 21.0287 979722
0 -5.27524 20.9572 979743
0 -4.78039 20.8856 979727
0 -4.28553 20.8141 979711
0 -3.79068 20.7425 979729
0 -3.29582 20.671 979772
0 -2.80097 20.5994 979873
0 -2.30612 20.5278 980012
0 -1.81126 20.4563 980132
0 -1.31641 20.3847 980207
0 -0.821557 20.3132 980239
0 -0.326704 20.2416 980248
0 0.16815 20.1701 980233
0 0.663003 20.0985 980207
0 1.15786 20.027 980207
0 1.65271 19.9554 980252
0 2.14756 19.8839 980310
0 2.64242 19.8123 980400
0 3.13727 19.7407 980420
0 3.63212 19.6692 980222
0 4.12698 19.5976 980596
0 4.62183 19.5261 980866
0 5.11668 19.4545 980829
0 5.61154 19.383 980789
0 6.10639 19.3114 980434
0 6.60124 19.2399 979988
0 7.0961 19.1683 980156
0 7.59095 19.0968 980115
0 8.08581 19.0252 980164
0 8.58066 18.9536 980331
0 9.07551 18.8821 980568
0 9.57037 18.8105 980856
0 10.0652 18.739 981227
0 10.5601 18.6674 981612
0 11.0549 18.5959 981851
0 11.5498 18.5243 982237
0 12.0446 18.4528 982548
0 12.5395 18.3812 982812
0 -17.8634 13.0944 976514
0 -16.9194 13.7999 976797
0 -15.9754 14.5054 976965
0 -15.0313 15.2109 977125
0 -14.0873 15.9164 977277
0 -13.1433 16.6219 977416
0 -12.1993 17.3274 977535
0 -11.2553 18.0329 977702
0 -10.3113 18.7384 977907
0 -9.36726 19.4439 978255
0 -8.42325 20.1494 978523
0 -7.47923 20.8549 979240
0 -20.4149 -1.64005 925170
0 -20.2808 -0.712196 940092
0 -20.1466 0.215654 937542
0 -20.0124 1.1435 942198
0 -19.8783 2.07135 950030
0 -19.7441 2.99921 970408
0 -19.6099 3.92706 974985
0 -19.4758 4.85491 974511
0 -19.3416 5.78276 974202
0 -19.2075 6.71061 974138
0 -19.0733 7.63846 974070
0 -18.9391 8.56631 974128
0 -18.805 9.49416 974439
0 -18.6708 10.422 974899
0 -18.5366 11.3499 975417
0 -18.4025 12.2777 975888
0 -16.6018 -7.29604 838838
0 -17.3073 -6.35203 881825
0 -18.0128 -5.40802 885881
0 -18.7183 -4.464 892121
0 -19.4238 -3.51999 895664
0 -20.1293 -2.57598 903900
