# p  FACE_DATA 148
#  x  y  z  p
0 -15.4977 -8.48001 948904
0 -14.7514 -8.55481 941508
0 -14.0051 -8.62961 935050
0 -13.2589 -8.70442 930584
0 -12.5126 -8.77922 928122
0 -11.7664 -8.85402 927298
0 -11.0201 -8.92883 928010
0 -10.2738 -9.00363 932527
0 -9.52757 -9.07843 943337
0 -8.78131 -9.15324 940782
0 -8.03505 -9.22804 941819
0 -7.28879 -9.30284 949051
0 -6.54253 -9.37765 959934
0 -5.79627 -9.45245 968135
0 -5.05001 -9.52725 972093
0 -4.30375 -9.60206 977119
0 -3.55749 -9.67686 985784
0 -2.81123 -9.75166 995535
0 -2.06497 -9.82647 1.00703e+06
0 -1.31871 -9.90127 1.01891e+06
0 -0.572449 -9.97607 1.02831e+06
0 0.173812 -10.0509 1.03539e+06
0 0.920072 -10.1257 1.04285e+06
0 1.66633 -10.2005 1.05073e+06
0 2.41259 -10.2753 1.06065e+06
0 3.15885 -10.3501 1.07491e+06
0 3.90511 -10.4249 1.09233e+06
0 4.65137 -10.4997 1.10986e+06
0 5.39763 -10.5745 1.12863e+06
0 6.14389 -10.6493 1.14679e+06
0 6.89015 -10.7241 1.16243e+06
0 7.63641 -10.7989 1.17692e+06
0 8.38268 -10.8737 1.19321e+06
0 9.12894 -10.9485 1.21101e+06
0 9.8752 -11.0233 1.22634e+06
0 10.6215 -11.0981 1.24453e+06
0 11.3677 -11.1729 1.26467e+06
0 12.114 -11.2477 1.27764e+06
0 12.8602 -11.3225 1.28837e+06
0 13.6065 -11.3973 1.31309e+06
0 14.4358 -11.0617 1.30972e+06
0 15.3481 -10.3156 1.27067e+06
0 16.2604 -9.56958 1.2504e+06
0 17.1727 -8.82351 1.23847e+06
0 18.0849 -8.07745 1.23443e+06
0 18.9972 -7.33139 1.22993e+06
0 19.5001 -6.49194 1.19532e+06
0 19.5936 -5.55912 1.16752e+06
0 19.6871 -4.62629 1.147e+06
0 19.7806 -3.69346 1.12148e+06
0 19.8742 -2.76064 1.08121e+06
0 19.9677 -1.82781 1.0355e+06
0 20.0612 -0.894989 1.01505e+06
0 20.1547 0.0378368 1.01111e+06
0 20.2482 0.970662 1.01077e+06
0 20.3417 1.90349 1.01109e+06
0 20.4352 2.83631 1.01156e+06
0 20.5287 3.76914 1.01158e+06
0 20.6222 4.70196 1.01128e+06
0 20.7157 5.63479 1.0084e+06
0 20.8092 6.56761 1.00429e+06
0 20.9027 7.50044 999914
0 20.5764 8.423 997583
0 19.8304 9.33529 996561
0 19.0843 10.2476 996819
0 18.3382 11.1599 997778
0 17.5922 12.0722 998603
0 16.8461 12.9845 998459
0 16.1 13.8968 996899
0 15.354 14.809 996531
0 14.6079 15.7213 996672
0 13.8618 16.6336 996803
0 13.1158 17.5459 997087
0 12.3697 18.4582 996411
0 -7.65484 20.8842 994050
0 -7.15733 20.8343 994266
0 -6.65982 20.7844 994325
0 -6.16231 20.7346 994292
0 -5.66481 20.6847 994255
0 -5.1673 20.6348 994219
0 -4.66979 20.585 994164
0 -4.17229 20.5351 994116
0 -3.67478 20.4852 994091
0 -3.17727 20.4354 994078
0 -2.67977 20.3855 994065
0 -2.18226 20.3356 994051
0 -1.68475 20.2858 993981
0 -1.18725 20.2359 994073
0 -0.689739 20.186 994162
0 -0.192232 20.1362 994194
0 0.305275 20.0863 994190
0 0.802782 20.0364 994182
0 1.30029 19.9865 994365
0 1.7978 19.9367 994444
0 2.2953 19.8868 994458
0 2.79281 19.8369 994479
0 3.29032 19.7871 994517
0 3.78782 19.7372 994558
0 4.28533 19.6873 994551
0 4.78284 19.6375 994682
0 5.28034 19.5876 994918
0 5.77785 19.5377 995014
0 6.27536 19.4879 995054
0 6.77286 19.438 995088
0 7.27037 19.3881 995118
0 7.76788 19.3383 995143
0 8.26539 19.2884 995186
0 8.76289 19.2385 995248
0 9.2604 19.1886 995323
0 9.75791 19.1388 995405
0 10.2554 19.0889 995521
0 10.7529 19.039 995572
0 11.2504 18.9892 995183
0 11.7479 18.9393 996276
0 -18.395 12.3294 1.01621e+06
0 -17.4827 13.0755 1.0006e+06
0 -16.5704 13.8215 990910
0 -15.6581 14.5676 987196
0 -14.7458 15.3136 988450
0 -13.8335 16.0597 990438
0 -12.9212 16.8058 991736
0 -12.0089 17.5518 992369
0 -11.0966 18.2979 992752
0 -10.1843 19.044 993139
0 -9.27203 19.79 993504
0 -8.35974 20.5361 994111
0 -20.3004 -2.50244 1.00037e+06
0 -20.2069 -1.56961 998906
0 -20.1134 -0.636786 991775
0 -20.0199 0.296039 985928
0 -19.9264 1.22886 981520
0 -19.8329 2.16169 978774
0 -19.7394 3.09452 978443
0 -19.6459 4.02734 980915
0 -19.5524 4.96017 986755
0 -19.4589 5.89299 985122
0 -19.3654 6.82582 984983
0 -19.2719 7.75864 986128
0 -19.1784 8.69147 991256
0 -19.0849 9.62429 993115
0 -18.9914 10.5571 992006
0 -18.8979 11.4899 990122
0 -16.2438 -7.98646 943927
0 -16.9899 -7.07417 979849
0 -17.7359 -6.16187 967311
0 -18.482 -5.24958 964603
0 -19.2281 -4.33729 966829
0 -19.9741 -3.425 976481
