# p  FACE_DATA 148
#  x  y  z  p
0 -15.5232 -8.49027 1.05451e+06
0 -14.7769 -8.56477 1.04878e+06
0 -14.0306 -8.63926 1.04573e+06
0 -13.2843 -8.71376 1.04174e+06
0 -12.538 -8.78825 1.03716e+06
0 -11.7917 -8.86275 1.0341e+06
0 -11.0455 -8.93724 1.03196e+06
0 -10.2992 -9.01174 1.03192e+06
0 -9.55287 -9.08623 1.03155e+06
0 -8.80658 -9.16073 1.03001e+06
0 -8.06029 -9.23522 1.02854e+06
0 -7.314 -9.30972 1.02779e+06
0 -6.5677 -9.38421 1.02682e+06
0 -5.82141 -9.4587 1.02545e+06
0 -5.07512 -9.5332 1.02424e+06
0 -4.32883 -9.60769 1.02267e+06
0 -3.58254 -9.68219 1.02051e+06
0 -2.83625 -9.75668 1.0197e+06
0 -2.08996 -9.83118 1.02224e+06
0 -1.34367 -9.90567 1.02625e+06
0 -0.597375 -9.98017 1.03258e+06
0 0.148916 -10.0547 1.04233e+06
0 0.895207 -10.1292 1.05353e+06
0 1.6415 -10.2037 1.06227e+06
0 2.38779 -10.2781 1.06387e+06
0 3.13408 -10.3526 1.06572e+06
0 3.88037 -10.4271 1.07302e+06
0 4.62666 -10.5016 1.08183e+06
0 5.37295 -10.5761 1.08891e+06
0 6.11925 -10.6506 1.09181e+06
0 6.86554 -10.7251 1.09352e+06
0 7.61183 -10.7996 1.09877e+06
0 8.35812 -10.8741 1.10241e+06
0 9.10441 -10.9486 1.10471e+06
0 9.8507 -11.0231 1.10817e+06
0 10.597 -11.0976 1.1138e+06
0 11.3433 -11.1721 1.11777e+06
0 12.0896 -11.2466 1.11988e+06
0 12.8359 -11.3211 1.11821e+06
0 13.5822 -11.3956 1.11296e+06
0 14.4113 -11.0596 1.11066e+06
0 15.3233 -10.3132 1.08959e+06
0 16.2353 -9.56672 1.07261e+06
0 17.1472 -8.82028 1.06722e+06
0 18.0592 -8.07384 1.06605e+06
0 18.9712 -7.3274 1.06596e+06
0 19.4738 -6.48775 1.06617e+06
0 19.5669 -5.55488 1.06292e+06
0 19.66 -4.62202 1.05962e+06
0 19.7531 -3.68915 1.05869e+06
0 19.8462 -2.75629 1.05756e+06
0 19.9394 -1.82343 1.05586e+06
0 20.0325 -0.890562 1.05808e+06
0 20.1256 0.0423022 1.06343e+06
0 20.2187 0.975166 1.0553e+06
0 20.3118 1.90803 1.03371e+06
0 20.405 2.84089 1.01661e+06
0 20.4981 3.77376 1.00747e+06
0 20.5912 4.70662 1.00354e+06
0 20.6843 5.63949 1.0031e+06
0 20.7774 6.57235 1.00198e+06
0 20.8705 7.50521 1.00118e+06
0 20.5439 8.42764 1.00157e+06
0 19.7974 9.33962 1.00044e+06
0 19.051 10.2516 998639
0 18.3046 11.1636 997094
0 17.5581 12.0756 996407
0 16.8117 12.9876 996122
0 16.0652 13.8995 995775
0 15.3188 14.8115 995304
0 14.5724 15.7235 995002
0 13.8259 16.6355 994691
0 13.0795 17.5475 994279
0 12.333 18.4595 993906
0 -7.69251 20.8772 987311
0 -7.19498 20.8275 987364
0 -6.69746 20.7778 987310
0 -6.19993 20.7282 987002
0 -5.7024 20.6785 986571
0 -5.20487 20.6288 986055
0 -4.70735 20.5792 985612
0 -4.20982 20.5295 985399
0 -3.71229 20.4799 985349
0 -3.21476 20.4302 985569
0 -2.71724 20.3805 985994
0 -2.21971 20.3309 986516
0 -1.72218 20.2812 986962
0 -1.22465 20.2315 987329
0 -0.727126 20.1819 987678
0 -0.229599 20.1322 987965
0 0.267929 20.0825 988237
0 0.765456 20.0329 988580
0 1.26298 19.9832 989084
0 1.76051 19.9336 989514
0 2.25804 19.8839 989854
0 2.75557 19.8342 990108
0 3.25309 19.7846 990333
0 3.75062 19.7349 990551
0 4.24815 19.6852 990760
0 4.74568 19.6356 990959
0 5.2432 19.5859 991141
0 5.74073 19.5363 991309
0 6.23826 19.4866 991461
0 6.73579 19.4369 991619
0 7.23331 19.3873 991781
0 7.73084 19.3376 991922
0 8.22837 19.2879 991992
0 8.7259 19.2383 992538
0 9.22342 19.1886 992929
0 9.72095 19.1389 993123
0 10.2185 19.0893 993314
0 10.716 19.0396 993494
0 11.2135 18.99 993665
0 11.7111 18.9403 993851
0 -18.4291 12.3179 988010
0 -17.5171 13.0644 987585
0 -16.6051 13.8108 987216
0 -15.6931 14.5572 987055
0 -14.7812 15.3037 986928
0 -13.8692 16.0501 986798
0 -12.9572 16.7966 986634
0 -12.0452 17.543 986465
0 -11.1332 18.2894 986406
0 -10.2212 19.0359 986533
0 -9.30925 19.7823 987041
0 -8.39727 20.5288 987366
0 -20.3284 -2.51468 1.06715e+06
0 -20.2353 -1.58182 1.04582e+06
0 -20.1422 -0.648957 1.03821e+06
0 -20.0491 0.283907 1.02633e+06
0 -19.956 1.21677 1.0058e+06
0 -19.8628 2.14963 989039
0 -19.7697 3.0825 988793
0 -19.6766 4.01536 989410
0 -19.5835 4.94823 988871
0 -19.4904 5.88109 988827
0 -19.3972 6.81395 988504
0 -19.3041 7.74682 987379
0 -19.211 8.67968 986951
0 -19.1179 9.61255 988005
0 -19.0248 10.5454 988474
0 -18.9316 11.4783 989003
0 -16.2696 -7.99703 1.05294e+06
0 -17.016 -7.08505 1.05616e+06
0 -17.7624 -6.17306 1.06031e+06
0 -18.5089 -5.26108 1.06247e+06
0 -19.2553 -4.34909 1.0707e+06
0 -20.0018 -3.43711 1.09288e+06
