# p  FACE_DATA 148
#  x  y  z  p
0 -16.131 -7.32364 848067
0 -15.3932 -7.45842 833589
0 -14.6554 -7.5932 827627
0 -13.9176 -7.72798 826192
0 -13.1798 -7.86276 825371
0 -12.442 -7.99754 825198
0 -11.7043 -8.13232 826690
0 -10.9665 -8.2671 830730
0 -10.2287 -8.40189 837929
0 -9.49089 -8.53667 847079
0 -8.7531 -8.67145 856061
0 -8.01531 -8.80623 864738
0 -7.27752 -8.94101 873779
0 -6.53973 -9.07579 885222
0 -5.80194 -9.21057 898355
0 -5.06415 -9.34535 909401
0 -4.32636 -9.48013 923319
0 -3.58857 -9.61491 944536
0 -2.85078 -9.74969 967371
0 -2.11299 -9.88448 991860
0 -1.3752 -10.0193 1.01896e+06
0 -0.637409 -10.154 1.04818e+06
0 0.100381 -10.2888 1.07793e+06
0 0.838171 -10.4236 1.10772e+06
0 1.57596 -10.5584 1.13084e+06
0 2.31375 -10.6932 1.14398e+06
0 3.05154 -10.8279 1.16038e+06
0 3.78933 -10.9627 1.17991e+06
0 4.52712 -11.0975 1.19974e+06
0 5.26491 -11.2323 1.2192e+06
0 6.0027 -11.3671 1.23959e+06
0 6.74049 -11.5018 1.25986e+06
0 7.47828 -11.6366 1.27866e+06
0 8.21607 -11.7714 1.29538e+06
0 8.95386 -11.9062 1.31323e+06
0 9.69165 -12.041 1.33127e+06
0 10.4294 -12.1758 1.34848e+06
0 11.1672 -12.3105 1.3634e+06
0 11.905 -12.4453 1.37283e+06
0 12.6428 -12.5801 1.39503e+06
0 13.4965 -12.3125 1.39264e+06
0 14.466 -11.6425 1.35194e+06
0 15.4355 -10.9725 1.31655e+06
0 16.405 -10.3024 1.28285e+06
0 17.3746 -9.63244 1.24772e+06
0 18.3441 -8.96243 1.21726e+06
0 18.9131 -8.16631 1.18213e+06
0 19.0816 -7.24407 1.14106e+06
0 19.25 -6.32183 1.11219e+06
0 19.4185 -5.39959 1.09073e+06
0 19.587 -4.47736 1.07229e+06
0 19.7555 -3.55512 1.05793e+06
0 19.9239 -2.63288 1.0485e+06
0 20.0924 -1.71064 1.04278e+06
0 20.2609 -0.788406 1.03602e+06
0 20.4294 0.133832 1.03033e+06
0 20.5978 1.05607 1.02991e+06
0 20.7663 1.97831 1.03061e+06
0 20.9348 2.90054 1.0282e+06
0 21.1033 3.82278 1.02179e+06
0 21.2718 4.74502 1.00884e+06
0 21.4402 5.66726 1.00209e+06
0 21.1895 6.61314 996465
0 20.5194 7.58266 986451
0 19.8494 8.55218 981990
0 19.1794 9.52171 979983
0 18.5094 10.4912 978723
0 17.8394 11.4608 984114
0 17.1694 12.4303 982258
0 16.4994 13.3998 981892
0 15.8294 14.3693 982319
0 15.1594 15.3388 982716
0 14.4894 16.3084 982730
0 13.8193 17.2779 982235
0 -5.94413 21.3119 980707
0 -5.45227 21.222 980844
0 -4.96041 21.1322 980968
0 -4.46855 21.0423 981057
0 -3.97669 20.9525 981118
0 -3.48483 20.8626 981149
0 -2.99297 20.7728 981153
0 -2.50111 20.6829 981147
0 -2.00925 20.5931 981143
0 -1.51739 20.5032 981160
0 -1.02553 20.4133 981218
0 -0.533667 20.3235 981234
0 -0.0418065 20.2336 981162
0 0.450053 20.1438 981320
0 0.941913 20.0539 981329
0 1.43377 19.9641 981354
0 1.92563 19.8742 981375
0 2.41749 19.7844 981394
0 2.90935 19.6945 981408
0 3.40121 19.6047 981416
0 3.89307 19.5148 981414
0 4.38493 19.425 981401
0 4.87679 19.3351 981375
0 5.36865 19.2452 981337
0 5.86051 19.1554 981287
0 6.35237 19.0655 981219
0 6.84423 18.9757 981162
0 7.33609 18.8858 981063
0 7.82795 18.796 980742
0 8.31981 18.7061 979886
0 8.81167 18.6163 980247
0 9.30353 18.5264 981032
0 9.79539 18.4366 980853
0 10.2873 18.3467 980911
0 10.7791 18.2569 981064
0 11.271 18.167 981263
0 11.7628 18.0771 981494
0 12.2547 17.9873 981701
0 12.7466 17.8974 981912
0 13.2384 17.8076 982118
0 -17.3396 13.6517 976951
0 -16.3701 14.3217 977271
0 -15.4005 14.9917 977194
0 -14.431 15.6617 977102
0 -13.4615 16.3317 976590
0 -12.492 17.0017 976148
0 -11.5224 17.6718 975928
0 -10.5529 18.3418 976696
0 -9.58339 19.0118 978635
0 -8.61386 19.6818 979343
0 -7.64434 20.3518 979793
0 -6.67482 21.0218 980755
0 -20.4357 -0.977989 947051
0 -20.2672 -0.055751 950938
0 -20.0988 0.866486 951721
0 -19.9303 1.78872 951321
0 -19.7618 2.71096 945160
0 -19.5933 3.6332 943424
0 -19.4249 4.55544 942178
0 -19.2564 5.47767 948778
0 -19.0879 6.39991 965169
0 -18.9194 7.32215 967167
0 -18.751 8.24439 969730
0 -18.5825 9.16662 965380
0 -18.414 10.0889 967045
0 -18.2455 11.0111 977345
0 -18.0771 11.9333 977749
0 -17.9086 12.8556 977660
0 -16.8349 -6.77149 842517
0 -17.5049 -5.80196 879919
0 -18.1749 -4.83244 915895
0 -18.8449 -3.86292 921533
0 -19.5149 -2.89339 929970
0 -20.1849 -1.92387 945772
