# p  FACE_DATA 148
#  x  y  z  p
0 -15.4465 -8.66562 995731
0 -14.6995 -8.73227 990271
0 -13.9524 -8.79891 985911
0 -13.2054 -8.86555 983023
0 -12.4584 -8.93219 981368
0 -11.7113 -8.99884 981212
0 -10.9643 -9.06548 982164
0 -10.2173 -9.13212 984148
0 -9.47022 -9.19876 986936
0 -8.72318 -9.26541 990284
0 -7.97615 -9.33205 994293
0 -7.22912 -9.39869 999032
0 -6.48208 -9.46534 1.00431e+06
0 -5.73505 -9.53198 1.00989e+06
0 -4.98802 -9.59862 1.01559e+06
0 -4.24098 -9.66526 1.02142e+06
0 -3.49395 -9.73191 1.02756e+06
0 -2.74692 -9.79855 1.03415e+06
0 -1.99988 -9.86519 1.04119e+06
0 -1.25285 -9.93183 1.04996e+06
0 -0.505818 -9.99848 1.05964e+06
0 0.241215 -10.0651 1.06897e+06
0 0.988249 -10.1318 1.07705e+06
0 1.73528 -10.1984 1.0829e+06
0 2.48232 -10.265 1.0872e+06
0 3.22935 -10.3317 1.09199e+06
0 3.97638 -10.3983 1.09816e+06
0 4.72342 -10.465 1.1069e+06
0 5.47045 -10.5316 1.11648e+06
0 6.21748 -10.5983 1.12659e+06
0 6.96452 -10.6649 1.13784e+06
0 7.71155 -10.7315 1.14965e+06
0 8.45858 -10.7982 1.16035e+06
0 9.20561 -10.8648 1.17071e+06
0 9.95265 -10.9315 1.1833e+06
0 10.6997 -10.9981 1.19718e+06
0 11.4467 -11.0648 1.20948e+06
0 12.1937 -11.1314 1.21826e+06
0 12.9408 -11.198 1.22746e+06
0 13.6878 -11.2647 1.24258e+06
0 14.5134 -10.92 1.2391e+06
0 15.4175 -10.164 1.21312e+06
0 16.3215 -9.40803 1.19621e+06
0 17.2256 -8.65204 1.18389e+06
0 18.1297 -7.89606 1.17901e+06
0 19.0338 -7.14007 1.17682e+06
0 19.5275 -6.29518 1.1437e+06
0 19.6108 -5.36138 1.11505e+06
0 19.6941 -4.42759 1.09012e+06
0 19.7774 -3.4938 1.06862e+06
0 19.8607 -2.56001 1.0497e+06
0 19.944 -1.62622 1.03294e+06
0 20.0273 -0.692425 1.01666e+06
0 20.1106 0.241366 1.00764e+06
0 20.1939 1.17516 1.00663e+06
0 20.2772 2.10895 1.00654e+06
0 20.3605 3.04274 1.00642e+06
0 20.4438 3.97653 1.00631e+06
0 20.5271 4.91032 1.00619e+06
0 20.6104 5.84412 1.0061e+06
0 20.6937 6.77791 1.00602e+06
0 20.777 7.7117 1.00581e+06
0 20.4407 8.63064 1.00544e+06
0 19.6847 9.53472 1.00515e+06
0 18.9287 10.4388 1.00486e+06
0 18.1727 11.3429 1.00461e+06
0 17.4167 12.247 1.00441e+06
0 16.6607 13.1511 1.00425e+06
0 15.9048 14.0551 1.00407e+06
0 15.1488 14.9592 1.0039e+06
0 14.3928 15.8633 1.00376e+06
0 13.6368 16.7674 1.00373e+06
0 12.8808 17.6715 1.00376e+06
0 12.1248 18.5756 1.00342e+06
0 -7.92506 20.7825 1.00237e+06
0 -7.42704 20.7381 1.00249e+06
0 -6.92902 20.6937 1.00251e+06
0 -6.43099 20.6492 1.00247e+06
0 -5.93297 20.6048 1.00243e+06
0 -5.43495 20.5604 1.00239e+06
0 -4.93693 20.516 1.00235e+06
0 -4.43891 20.4715 1.00231e+06
0 -3.94088 20.4271 1.00227e+06
0 -3.44286 20.3827 1.00223e+06
0 -2.94484 20.3382 1.00221e+06
0 -2.44682 20.2938 1.0022e+06
0 -1.94879 20.2494 1.0022e+06
0 -1.45077 20.205 1.0022e+06
0 -0.95275 20.1605 1.0022e+06
0 -0.454728 20.1161 1.00219e+06
0 0.0432939 20.0717 1.00219e+06
0 0.541316 20.0272 1.0022e+06
0 1.03934 19.9828 1.0022e+06
0 1.53736 19.9384 1.0022e+06
0 2.03538 19.894 1.00221e+06
0 2.5334 19.8495 1.00221e+06
0 3.03143 19.8051 1.00223e+06
0 3.52945 19.7607 1.00225e+06
0 4.02747 19.7162 1.00227e+06
0 4.52549 19.6718 1.0023e+06
0 5.02352 19.6274 1.00233e+06
0 5.52154 19.583 1.00237e+06
0 6.01956 19.5385 1.00241e+06
0 6.51758 19.4941 1.00246e+06
0 7.0156 19.4497 1.00251e+06
0 7.51363 19.4052 1.00258e+06
0 8.01165 19.3608 1.00265e+06
0 8.50967 19.3164 1.00273e+06
0 9.00769 19.272 1.00281e+06
0 9.50572 19.2275 1.00291e+06
0 10.0037 19.1831 1.00302e+06
0 10.5018 19.1387 1.00313e+06
0 10.9998 19.0943 1.00325e+06
0 11.4978 19.0498 1.00337e+06
0 -18.571 12.1109 1.00252e+06
0 -17.667 12.8669 1.00233e+06
0 -16.7629 13.6228 1.00212e+06
0 -15.8588 14.3788 1.00203e+06
0 -14.9547 15.1348 1.00199e+06
0 -14.0506 15.8908 1.00195e+06
0 -13.1465 16.6468 1.00192e+06
0 -12.2425 17.4028 1.00192e+06
0 -11.3384 18.1588 1.00196e+06
0 -10.4343 18.9148 1.00203e+06
0 -9.5302 19.6708 1.00216e+06
0 -8.62611 20.4268 1.00241e+06
0 -20.3143 -2.7409 1.02555e+06
0 -20.231 -1.80711 1.02718e+06
0 -20.1477 -0.873317 1.02071e+06
0 -20.0644 0.0604748 1.01252e+06
0 -19.9811 0.994266 1.00555e+06
0 -19.8978 1.92806 1.0031e+06
0 -19.8145 2.86185 1.00251e+06
0 -19.7312 3.79564 1.0019e+06
0 -19.6479 4.72943 1.00192e+06
0 -19.5646 5.66322 1.00189e+06
0 -19.4813 6.59702 1.0019e+06
0 -19.398 7.53081 1.00192e+06
0 -19.3146 8.4646 1.00194e+06
0 -19.2313 9.39839 1.002e+06
0 -19.148 10.3322 1.00209e+06
0 -19.0647 11.266 1.00225e+06
0 -16.198 -8.18026 990835
0 -16.954 -7.27618 1.01174e+06
0 -17.71 -6.37209 1.00568e+06
0 -18.466 -5.46801 1.0028e+06
0 -19.222 -4.56392 1.00615e+06
0 -19.9779 -3.65984 1.01173e+06
