# p  FACE_DATA 148
#  x  y  z  p
0 -16.1552 -7.13304 931136
0 -15.4171 -7.26619 926241
0 -14.679 -7.39935 924893
0 -13.9409 -7.5325 924612
0 -13.2028 -7.66565 927236
0 -12.4647 -7.7988 933905
0 -11.7266 -7.93196 939511
0 -10.9886 -8.06511 939620
0 -10.2505 -8.19826 942666
0 -9.51238 -8.33141 950016
0 -8.7743 -8.46456 960669
0 -8.03621 -8.59772 974947
0 -7.29813 -8.73087 988036
0 -6.56004 -8.86402 1.00181e+06
0 -5.82196 -8.99717 1.01682e+06
0 -5.08387 -9.13032 1.0324e+06
0 -4.34578 -9.26348 1.0483e+06
0 -3.6077 -9.39663 1.06438e+06
0 -2.86961 -9.52978 1.08086e+06
0 -2.13153 -9.66293 1.0984e+06
0 -1.39344 -9.79608 1.11782e+06
0 -0.655356 -9.92924 1.14029e+06
0 0.08273 -10.0624 1.16331e+06
0 0.820816 -10.1955 1.17876e+06
0 1.5589 -10.3287 1.18339e+06
0 2.29699 -10.4618 1.187e+06
0 3.03507 -10.595 1.19447e+06
0 3.77316 -10.7281 1.20566e+06
0 4.51124 -10.8613 1.21915e+06
0 5.24933 -10.9945 1.2345e+06
0 5.98742 -11.1276 1.2498e+06
0 6.7255 -11.2608 1.26487e+06
0 7.46359 -11.3939 1.27961e+06
0 8.20167 -11.5271 1.29339e+06
0 8.93976 -11.6602 1.30313e+06
0 9.67784 -11.7934 1.30676e+06
0 10.4159 -11.9265 1.31257e+06
0 11.154 -12.0597 1.32061e+06
0 11.8921 -12.1928 1.32356e+06
0 12.6302 -12.326 1.34433e+06
0 13.4833 -12.0565 1.34162e+06
0 14.4513 -11.3843 1.29247e+06
0 15.4193 -10.7122 1.27362e+06
0 16.3874 -10.04 1.23928e+06
0 17.3554 -9.36788 1.2227e+06
0 18.3235 -8.69573 1.21582e+06
0 18.8907 -7.89835 1.16903e+06
0 19.0571 -6.97575 1.13369e+06
0 19.2236 -6.05314 1.08858e+06
0 19.39 -5.13053 1.04461e+06
0 19.5565 -4.20793 1.02656e+06
0 19.7229 -3.28532 1.02382e+06
0 19.8893 -2.36271 1.01758e+06
0 20.0558 -1.4401 1.02084e+06
0 20.2222 -0.517497 1.02734e+06
0 20.3887 0.40511 1.02663e+06
0 20.5551 1.32772 1.01512e+06
0 20.7215 2.25032 1.00989e+06
0 20.888 3.17293 1.00872e+06
0 21.0544 4.09554 1.00827e+06
0 21.2209 5.01815 1.00767e+06
0 21.3873 5.94075 1.00598e+06
0 21.1344 6.88608 1.00392e+06
0 20.4623 7.85412 1.00298e+06
0 19.7902 8.82216 1.00267e+06
0 19.118 9.7902 1.00206e+06
0 18.4459 10.7582 1.00128e+06
0 17.7737 11.7263 1.00078e+06
0 17.1016 12.6943 1.00036e+06
0 16.4294 13.6624 999966
0 15.7573 14.6304 999599
0 15.0851 15.5985 999268
0 14.413 16.5665 998969
0 13.7408 17.5345 998313
0 -6.03152 21.5249 991200
0 -5.53946 21.4361 991466
0 -5.0474 21.3474 991665
0 -4.55534 21.2586 991785
0 -4.06329 21.1698 991865
0 -3.57123 21.0811 991931
0 -3.07917 20.9923 991979
0 -2.58712 20.9035 992025
0 -2.09506 20.8148 992103
0 -1.603 20.726 992245
0 -1.11094 20.6372 992473
0 -0.618887 20.5484 992780
0 -0.12683 20.4597 993138
0 0.365227 20.3709 993518
0 0.857284 20.2821 993925
0 1.34934 20.1934 994324
0 1.8414 20.1046 994685
0 2.33346 20.0158 995003
0 2.82551 19.9271 995282
0 3.31757 19.8383 995532
0 3.80963 19.7495 995753
0 4.30168 19.6608 995938
0 4.79374 19.572 996087
0 5.2858 19.4832 996206
0 5.77786 19.3945 996268
0 6.26991 19.3057 996339
0 6.76197 19.2169 996396
0 7.25403 19.1282 996458
0 7.74608 19.0394 996537
0 8.23814 18.9506 996629
0 8.7302 18.8619 996741
0 9.22226 18.7731 996888
0 9.71431 18.6843 997054
0 10.2064 18.5956 997220
0 10.6984 18.5068 997381
0 11.1905 18.418 997556
0 11.6825 18.3292 997704
0 12.1746 18.2405 997861
0 12.6667 18.1517 998015
0 13.1587 18.0629 998253
0 -17.41 13.8396 989320
0 -16.442 14.5117 989329
0 -15.4739 15.1839 989265
0 -14.5059 15.856 989143
0 -13.5379 16.5282 989071
0 -12.5698 17.2003 989133
0 -11.6018 17.8725 989810
0 -10.6337 18.5446 990031
0 -9.66569 19.2168 990247
0 -8.69765 19.8889 990454
0 -7.72961 20.5611 990629
0 -6.76157 21.2332 991245
0 -20.4739 -0.796911 1.02375e+06
0 -20.3074 0.125696 999993
0 -20.141 1.0483 982220
0 -19.9745 1.97091 971845
0 -19.8081 2.89352 979718
0 -19.6417 3.81612 982172
0 -19.4752 4.73873 981547
0 -19.3088 5.66134 981877
0 -19.1423 6.58395 979541
0 -18.9759 7.50655 982556
0 -18.8095 8.42916 987902
0 -18.643 9.35177 987611
0 -18.4766 10.2744 987637
0 -18.3101 11.197 987680
0 -18.1437 12.1196 987072
0 -17.9773 13.0422 989059
0 -16.8603 -6.58245 927224
0 -17.5324 -5.6144 954105
0 -18.2046 -4.64636 955488
0 -18.8767 -3.67832 958689
0 -19.5489 -2.71028 961088
0 -20.221 -1.74224 977771
