# p  FACE_DATA 148
#  x  y  z  p
0 -16.2521 -6.86523 857214
0 -15.5174 -7.01634 853437
0 -14.7828 -7.16744 849762
0 -14.0482 -7.31855 850473
0 -13.3136 -7.46966 854046
0 -12.579 -7.62076 857956
0 -11.8443 -7.77187 862972
0 -11.1097 -7.92297 870376
0 -10.3751 -8.07408 880272
0 -9.64049 -8.22518 891925
0 -8.90587 -8.37629 904934
0 -8.17125 -8.5274 918181
0 -7.43663 -8.6785 929396
0 -6.702 -8.82961 940763
0 -5.96738 -8.98071 952530
0 -5.23276 -9.13182 963999
0 -4.49814 -9.28292 980465
0 -3.76352 -9.43403 1.00127e+06
0 -3.0289 -9.58514 1.02636e+06
0 -2.29428 -9.73624 1.05372e+06
0 -1.55966 -9.88735 1.08225e+06
0 -0.825042 -10.0385 1.10412e+06
0 -0.0904217 -10.1896 1.1181e+06
0 0.644199 -10.3407 1.13329e+06
0 1.37882 -10.4918 1.15211e+06
0 2.11344 -10.6429 1.17155e+06
0 2.84806 -10.794 1.19124e+06
0 3.58268 -10.9451 1.21157e+06
0 4.3173 -11.0962 1.23225e+06
0 5.05192 -11.2473 1.25258e+06
0 5.78654 -11.3984 1.27233e+06
0 6.52116 -11.5495 1.29164e+06
0 7.25578 -11.7006 1.31016e+06
0 7.9904 -11.8517 1.32736e+06
0 8.72502 -12.0028 1.34319e+06
0 9.45964 -12.1539 1.35725e+06
0 10.1943 -12.305 1.37001e+06
0 10.9289 -12.4561 1.38349e+06
0 11.6635 -12.6073 1.3809e+06
0 12.3981 -12.7584 1.40418e+06
0 13.2575 -12.5097 1.40172e+06
0 14.2416 -11.8614 1.36129e+06
0 15.2258 -11.213 1.33501e+06
0 16.2099 -10.5647 1.30977e+06
0 17.1941 -9.91634 1.28268e+06
0 18.1782 -9.26799 1.2554e+06
0 18.7647 -8.48468 1.22342e+06
0 18.9536 -7.5664 1.1947e+06
0 19.1425 -6.64813 1.17043e+06
0 19.3314 -5.72985 1.14715e+06
0 19.5202 -4.81157 1.12651e+06
0 19.7091 -3.8933 1.10878e+06
0 19.898 -2.97502 1.09311e+06
0 20.0869 -2.05675 1.0779e+06
0 20.2758 -1.13847 1.06424e+06
0 20.4647 -0.220197 1.05078e+06
0 20.6535 0.698078 1.03451e+06
0 20.8424 1.61635 1.01396e+06
0 21.0313 2.53463 1.00544e+06
0 21.2202 3.4529 1.0016e+06
0 21.4091 4.37118 1.00008e+06
0 21.5979 5.28946 999288
0 21.3682 6.24066 998071
0 20.7199 7.2248 996385
0 20.0715 8.20894 995173
0 19.4232 9.19308 994418
0 18.7748 10.1772 993760
0 18.1265 11.1614 993206
0 17.4781 12.1455 992728
0 16.8298 13.1296 992245
0 16.1814 14.1138 991671
0 15.5331 15.0979 991111
0 14.8847 16.0821 990580
0 14.2364 17.0662 989979
0 -5.43281 21.5374 984482
0 -4.94306 21.4367 984720
0 -4.45331 21.3359 984870
0 -3.96356 21.2352 985021
0 -3.47382 21.1344 985177
0 -2.98407 21.0337 985285
0 -2.49432 20.933 985330
0 -2.00458 20.8322 985331
0 -1.51483 20.7315 985381
0 -1.02508 20.6308 985389
0 -0.535336 20.53 985399
0 -0.0455894 20.4293 985416
0 0.444157 20.3285 985441
0 0.933904 20.2278 985467
0 1.42365 20.1271 985503
0 1.9134 20.0263 985552
0 2.40315 19.9256 985610
0 2.89289 19.8249 985685
0 3.38264 19.7241 985717
0 3.87239 19.6234 985823
0 4.36213 19.5227 986076
0 4.85188 19.4219 986140
0 5.34163 19.3212 986220
0 5.83137 19.2204 986347
0 6.32112 19.1197 986515
0 6.81087 19.019 986681
0 7.30061 18.9182 986845
0 7.79036 18.8175 987025
0 8.28011 18.7168 987220
0 8.76985 18.616 987436
0 9.2596 18.5153 987658
0 9.74935 18.4145 987837
0 10.2391 18.3138 987947
0 10.7288 18.2131 988091
0 11.2186 18.1123 988795
0 11.7083 18.0116 989215
0 12.1981 17.9109 989295
0 12.6878 17.8101 989437
0 13.1776 17.7094 989611
0 13.6673 17.6086 989918
0 -16.9953 14.1317 981440
0 -16.0112 14.7801 981930
0 -15.027 15.4284 982217
0 -14.0429 16.0768 982311
0 -13.0587 16.7251 982377
0 -12.0746 17.3735 982491
0 -11.0904 18.0218 982681
0 -10.1063 18.6702 982915
0 -9.12217 19.3185 983228
0 -8.13803 19.9669 983599
0 -7.15389 20.6152 983948
0 -6.16975 21.2636 984561
0 -20.415 -0.4257 946617
0 -20.2262 0.492575 948806
0 -20.0373 1.41085 952671
0 -19.8484 2.32913 958668
0 -19.6595 3.2474 965969
0 -19.4706 4.16568 972113
0 -19.2817 5.08395 976199
0 -19.0929 6.00223 977533
0 -18.904 6.9205 977508
0 -18.7151 7.83878 977201
0 -18.5262 8.75705 976277
0 -18.3373 9.67533 979245
0 -18.1484 10.5936 982213
0 -17.9596 11.5119 981564
0 -17.7707 12.4302 980543
0 -17.5818 13.3484 980721
0 -16.9436 -6.29761 851490
0 -17.5919 -5.31347 867936
0 -18.2403 -4.32933 879065
0 -18.8886 -3.34519 896160
0 -19.537 -2.36105 917726
0 -20.1853 -1.37691 934423
