# p  FACE_DATA 148
#  x  y  z  p
0 -12.979 -12.0608 1.3047e+06
0 -12.2373 -11.9496 1.30563e+06
0 -11.4956 -11.8384 1.29811e+06
0 -10.7538 -11.7273 1.28963e+06
0 -10.0121 -11.6161 1.28251e+06
0 -9.2704 -11.505 1.27106e+06
0 -8.52869 -11.3938 1.25723e+06
0 -7.78697 -11.2827 1.24391e+06
0 -7.04525 -11.1715 1.23053e+06
0 -6.30353 -11.0603 1.21653e+06
0 -5.56182 -10.9492 1.20184e+06
0 -4.8201 -10.838 1.18715e+06
0 -4.07838 -10.7269 1.17267e+06
0 -3.33667 -10.6157 1.15804e+06
0 -2.59495 -10.5046 1.14381e+06
0 -1.85323 -10.3934 1.12899e+06
0 -1.11152 -10.2823 1.11567e+06
0 -0.369798 -10.1711 1.10338e+06
0 0.371919 -10.0599 1.08895e+06
0 1.11364 -9.94878 1.07247e+06
0 1.85535 -9.83763 1.05636e+06
0 2.59707 -9.72647 1.04119e+06
0 3.33879 -9.61531 1.02976e+06
0 4.0805 -9.50416 1.01864e+06
0 4.82222 -9.393 1.00176e+06
0 5.56394 -9.28185 987579
0 6.30566 -9.17069 977515
0 7.04737 -9.05953 970562
0 7.78909 -8.94838 961157
0 8.53081 -8.83722 951957
0 9.27252 -8.72606 943755
0 10.0142 -8.61491 937297
0 10.756 -8.50375 932787
0 11.4977 -8.39259 929909
0 12.2394 -8.28144 928759
0 12.9811 -8.17028 929037
0 13.7228 -8.05912 932292
0 14.4645 -7.94797 937925
0 15.2063 -7.83681 942995
0 15.948 -7.72565 950980
0 16.6691 -7.19626 948166
0 17.3698 -6.24862 975776
0 18.0704 -5.30098 981609
0 18.771 -4.35334 988277
0 19.4716 -3.40571 1.00261e+06
0 20.1723 -2.45807 1.02385e+06
0 20.4531 -1.52068 1.08072e+06
0 20.3142 -0.593532 1.04533e+06
0 20.1752 0.333615 1.0186e+06
0 20.0363 1.26076 1.0023e+06
0 19.8973 2.18791 1.00373e+06
0 19.7584 3.11505 1.00763e+06
0 19.6194 4.0422 1.00142e+06
0 19.4805 4.96935 988824
0 19.3415 5.89649 982073
0 19.2026 6.82364 977427
0 19.0636 7.75079 976949
0 18.9247 8.67793 980728
0 18.7858 9.60508 980872
0 18.6468 10.5322 980936
0 18.5079 11.4594 981127
0 18.3689 12.3865 981190
0 17.8256 13.2004 983428
0 16.878 13.901 981938
0 15.9303 14.6016 981237
0 14.9827 15.3023 981600
0 14.0351 16.0029 982736
0 13.0874 16.7035 983404
0 12.1398 17.4041 985818
0 11.1922 18.1048 986084
0 10.2445 18.8054 987245
0 9.29689 19.506 988223
0 8.34925 20.2066 988661
0 7.40161 20.9073 989187
0 -12.6041 18.3304 993968
0 -12.1096 18.4045 993677
0 -11.6151 18.4787 993344
0 -11.1207 18.5528 992941
0 -10.6262 18.6269 992405
0 -10.1317 18.701 991566
0 -9.63722 18.7751 991009
0 -9.14274 18.8492 990997
0 -8.64826 18.9233 990849
0 -8.15379 18.9974 990713
0 -7.65931 19.0715 990593
0 -7.16483 19.1456 990461
0 -6.67035 19.2197 990299
0 -6.17587 19.2938 990071
0 -5.6814 19.3679 989879
0 -5.18692 19.442 989879
0 -4.69244 19.5161 989853
0 -4.19796 19.5902 989841
0 -3.70348 19.6643 989867
0 -3.20901 19.7384 989863
0 -2.71453 19.8125 989791
0 -2.22005 19.8866 989695
0 -1.72557 19.9607 989591
0 -1.23109 20.0348 989484
0 -0.736616 20.1089 989378
0 -0.242137 20.1831 989277
0 0.252341 20.2572 989183
0 0.746819 20.3313 989096
0 1.2413 20.4054 989023
0 1.73577 20.4795 988978
0 2.23025 20.5536 988943
0 2.72473 20.6277 988943
0 3.21921 20.7018 988981
0 3.71369 20.7759 989026
0 4.20816 20.85 989051
0 4.70264 20.9241 989147
0 5.19712 20.9982 989291
0 5.6916 21.0723 989349
0 6.18608 21.1464 989359
0 6.68056 21.2205 989152
0 -20.9085 7.39556 1.00108e+06
0 -20.2079 8.3432 1.00025e+06
0 -19.5072 9.29084 998880
0 -18.8066 10.2385 997757
0 -18.106 11.1861 997266
0 -17.4054 12.1337 996877
0 -16.7048 13.0814 996423
0 -16.0041 14.029 995825
0 -15.3035 14.9767 995097
0 -14.6029 15.9243 994651
0 -13.9023 16.8719 994481
0 -13.2016 17.8196 994047
0 -19.1051 -7.44903 1.16346e+06
0 -19.2441 -6.52188 1.13653e+06
0 -19.383 -5.59473 1.10858e+06
0 -19.522 -4.66759 1.08445e+06
0 -19.6609 -3.74044 1.04988e+06
0 -19.7999 -2.81329 1.01175e+06
0 -19.9388 -1.88615 1.0076e+06
0 -20.0778 -0.959002 1.0068e+06
0 -20.2167 -0.0318558 1.00637e+06
0 -20.3557 0.895291 1.00579e+06
0 -20.4946 1.82244 1.00531e+06
0 -20.6335 2.74958 1.00482e+06
0 -20.7725 3.67673 1.00436e+06
0 -20.9114 4.60388 1.00526e+06
0 -21.0504 5.53102 1.00719e+06
0 -21.1893 6.45817 1.00451e+06
0 -13.8237 -11.766 1.30413e+06
0 -14.7713 -11.0654 1.2893e+06
0 -15.7189 -10.3648 1.26545e+06
0 -16.6666 -9.66416 1.24466e+06
0 -17.6142 -8.96353 1.22865e+06
0 -18.5619 -8.26291 1.20214e+06
