# p  FACE_DATA 148
#  x  y  z  p
0 -13.4505 -11.6919 1.41644e+06
0 -12.705 -11.6093 1.38039e+06
0 -11.9596 -11.5266 1.36379e+06
0 -11.2142 -11.4439 1.34958e+06
0 -10.4687 -11.3613 1.32826e+06
0 -9.72332 -11.2786 1.30467e+06
0 -8.97789 -11.1959 1.29031e+06
0 -8.23246 -11.1132 1.27704e+06
0 -7.48703 -11.0306 1.25898e+06
0 -6.7416 -10.9479 1.23486e+06
0 -5.99617 -10.8652 1.21158e+06
0 -5.25074 -10.7826 1.18931e+06
0 -4.50531 -10.6999 1.16812e+06
0 -3.75988 -10.6172 1.14779e+06
0 -3.01445 -10.5346 1.12724e+06
0 -2.26902 -10.4519 1.10799e+06
0 -1.52359 -10.3692 1.09036e+06
0 -0.778162 -10.2865 1.07366e+06
0 -0.0327318 -10.2039 1.0609e+06
0 0.712698 -10.1212 1.05189e+06
0 1.45813 -10.0385 1.03913e+06
0 2.20356 -9.95586 1.01875e+06
0 2.94899 -9.87319 996281
0 3.69442 -9.79052 977711
0 4.43985 -9.70785 963292
0 5.18528 -9.62518 950943
0 5.93071 -9.5425 938466
0 6.67614 -9.45983 929555
0 7.42157 -9.37716 923906
0 8.167 -9.29449 910864
0 8.91243 -9.21182 898160
0 9.65786 -9.12915 891974
0 10.4033 -9.04648 889199
0 11.1487 -8.96381 885610
0 11.8941 -8.88114 883241
0 12.6396 -8.79847 880359
0 13.385 -8.7158 879732
0 14.1304 -8.63313 882208
0 14.8759 -8.55045 887804
0 15.6213 -8.46778 894361
0 16.3622 -7.96639 889588
0 17.0986 -7.04628 928289
0 17.835 -6.12617 924985
0 18.5714 -5.20606 926349
0 19.3078 -4.28595 935056
0 20.0442 -3.36583 947264
0 20.3607 -2.43988 971456
0 20.2574 -1.5081 972469
0 20.1541 -0.57631 969283
0 20.0507 0.355477 973295
0 19.9474 1.28726 979006
0 19.844 2.21905 977306
0 19.7407 3.15084 977071
0 19.6374 4.08263 976632
0 19.534 5.01441 976560
0 19.4307 5.9462 976842
0 19.3273 6.87799 977092
0 19.224 7.80977 977251
0 19.1207 8.74156 977336
0 19.0173 9.67335 977427
0 18.914 10.6051 977563
0 18.8107 11.5369 977783
0 18.2989 12.371 978237
0 17.3788 13.1074 978524
0 16.4587 13.8438 978721
0 15.5386 14.5802 978906
0 14.6185 15.3166 979085
0 13.6984 16.053 979231
0 12.7783 16.7894 979339
0 11.8581 17.5258 979450
0 10.938 18.2622 979594
0 10.0179 18.9986 979809
0 9.09781 19.735 980077
0 8.1777 20.4714 980749
0 -11.912 18.6626 984669
0 -11.4151 18.7177 984314
0 -10.9181 18.7728 984031
0 -10.4211 18.8279 983779
0 -9.92419 18.8831 983557
0 -9.42724 18.9382 983341
0 -8.93029 18.9933 983121
0 -8.43333 19.0484 982872
0 -7.93638 19.1035 982685
0 -7.43943 19.1586 982575
0 -6.94247 19.2137 982426
0 -6.44552 19.2689 982289
0 -5.94857 19.324 982159
0 -5.45162 19.3791 982036
0 -4.95466 19.4342 981916
0 -4.45771 19.4893 981800
0 -3.96076 19.5444 981689
0 -3.4638 19.5995 981589
0 -2.96685 19.6547 981499
0 -2.4699 19.7098 981436
0 -1.97294 19.7649 981370
0 -1.47599 19.82 981293
0 -0.979036 19.8751 981279
0 -0.482083 19.9302 981273
0 0.0148699 19.9853 981260
0 0.511823 20.0405 981257
0 1.00878 20.0956 981260
0 1.50573 20.1507 981263
0 2.00268 20.2058 981261
0 2.49964 20.2609 981256
0 2.99659 20.316 981246
0 3.49354 20.3711 981207
0 3.9905 20.4262 981164
0 4.48745 20.4814 981304
0 4.9844 20.5365 981317
0 5.48135 20.5916 981251
0 5.97831 20.6467 981147
0 6.47526 20.7018 981101
0 6.97221 20.7569 981065
0 7.46917 20.812 980666
0 -20.6291 8.05376 991689
0 -19.8927 8.97388 990809
0 -19.1563 9.89399 990102
0 -18.4199 10.8141 989525
0 -17.6835 11.7342 988865
0 -16.9471 12.6543 987949
0 -16.2107 13.5744 986851
0 -15.4743 14.4945 986033
0 -14.7379 15.4147 985419
0 -14.0015 16.3348 985248
0 -13.2651 17.2549 985499
0 -12.5287 18.175 984787
0 -19.3955 -6.84899 1.23586e+06
0 -19.4989 -5.91721 1.18082e+06
0 -19.6022 -4.98542 1.13248e+06
0 -19.7055 -4.05363 1.08637e+06
0 -19.8089 -3.12185 1.04088e+06
0 -19.9122 -2.19006 1.02366e+06
0 -20.0156 -1.25827 1.02123e+06
0 -20.1189 -0.326484 1.01973e+06
0 -20.2222 0.605303 1.01462e+06
0 -20.3256 1.53709 1.00579e+06
0 -20.4289 2.46888 999088
0 -20.5322 3.40066 997909
0 -20.6356 4.33245 996189
0 -20.7389 5.26424 994199
0 -20.8423 6.19603 993612
0 -20.9456 7.12781 992764
0 -14.2832 -11.3651 1.41315e+06
0 -15.2034 -10.6287 1.35813e+06
0 -16.1235 -9.89228 1.3285e+06
0 -17.0436 -9.15589 1.30829e+06
0 -17.9637 -8.41949 1.30131e+06
0 -18.8838 -7.68309 1.29924e+06
