# p  FACE_DATA 148
#  x  y  z  p
0 -14.2801 -10.5724 1.24682e+06
0 -13.5305 -10.5492 1.22009e+06
0 -12.7809 -10.526 1.20175e+06
0 -12.0312 -10.5028 1.1873e+06
0 -11.2816 -10.4796 1.16774e+06
0 -10.5319 -10.4564 1.1438e+06
0 -9.7823 -10.4333 1.12182e+06
0 -9.03266 -10.4101 1.10194e+06
0 -8.28302 -10.3869 1.08312e+06
0 -7.53338 -10.3637 1.06452e+06
0 -6.78373 -10.3405 1.04757e+06
0 -6.03409 -10.3173 1.03167e+06
0 -5.28445 -10.2941 1.01658e+06
0 -4.53481 -10.271 1.0083e+06
0 -3.78517 -10.2478 999867
0 -3.03553 -10.2246 990657
0 -2.28588 -10.2014 986309
0 -1.53624 -10.1782 983364
0 -0.786602 -10.155 983260
0 -0.0369603 -10.1318 987870
0 0.712681 -10.1087 987866
0 1.46232 -10.0855 979736
0 2.21196 -10.0623 970513
0 2.96161 -10.0391 965729
0 3.71125 -10.0159 961741
0 4.46089 -9.99274 956454
0 5.21053 -9.96956 951320
0 5.96017 -9.94637 948103
0 6.70981 -9.92319 946333
0 7.45946 -9.9 946850
0 8.2091 -9.87682 948057
0 8.95874 -9.85363 950908
0 9.70838 -9.83045 955728
0 10.458 -9.80726 961525
0 11.2077 -9.78408 969278
0 11.9573 -9.76089 983336
0 12.7069 -9.73771 996694
0 13.4566 -9.71452 1.00899e+06
0 14.2062 -9.69134 1.01925e+06
0 14.9559 -9.66815 1.03126e+06
0 15.7343 -9.22721 1.02701e+06
0 16.5415 -8.36851 1.04934e+06
0 17.3486 -7.50982 1.03482e+06
0 18.1558 -6.65112 1.01625e+06
0 18.963 -5.79243 1.00988e+06
0 19.7701 -4.93373 1.00725e+06
0 20.1592 -4.03585 1.00685e+06
0 20.1303 -3.0988 1.00678e+06
0 20.1013 -2.16175 997053
0 20.0723 -1.2247 994036
0 20.0433 -0.287647 992551
0 20.0143 0.649405 988071
0 19.9854 1.58646 984784
0 19.9564 2.52351 982915
0 19.9274 3.46056 980874
0 19.8984 4.39761 980797
0 19.8694 5.33466 981195
0 19.8405 6.27172 981181
0 19.8115 7.20877 980572
0 19.7825 8.14582 981308
0 19.7535 9.08287 984952
0 19.7245 10.0199 985274
0 19.2807 10.892 985329
0 18.422 11.6992 985231
0 17.5633 12.5064 985224
0 16.7046 13.3136 985301
0 15.8459 14.1207 985287
0 14.9872 14.9279 985328
0 14.1285 15.7351 985472
0 13.2698 16.5423 985731
0 12.4111 17.3494 985852
0 11.5524 18.1566 985973
0 10.6937 18.9638 986065
0 9.83503 19.771 986469
0 -10.3349 19.564 989925
0 -9.83512 19.5795 989769
0 -9.33536 19.5949 989545
0 -8.8356 19.6104 989357
0 -8.33583 19.6258 989206
0 -7.83607 19.6413 989046
0 -7.33631 19.6567 988895
0 -6.83655 19.6722 988758
0 -6.33679 19.6877 988608
0 -5.83703 19.7031 988500
0 -5.33727 19.7186 988402
0 -4.83751 19.734 988267
0 -4.33775 19.7495 988114
0 -3.83799 19.7649 987936
0 -3.33822 19.7804 987697
0 -2.83846 19.7958 987389
0 -2.3387 19.8113 987229
0 -1.83894 19.8268 987074
0 -1.33918 19.8422 986957
0 -0.839419 19.8577 986857
0 -0.339658 19.8731 986765
0 0.160103 19.8886 986711
0 0.659864 19.904 986709
0 1.15962 19.9195 986831
0 1.65939 19.935 987049
0 2.15915 19.9504 987249
0 2.65891 19.9659 987449
0 3.15867 19.9813 987552
0 3.65843 19.9968 987543
0 4.15819 20.0122 987423
0 4.65795 20.0277 987264
0 5.15771 20.0432 987097
0 5.65747 20.0586 986959
0 6.15724 20.0741 986864
0 6.657 20.0895 986748
0 7.15676 20.105 986575
0 7.65652 20.1204 986552
0 8.15628 20.1359 986530
0 8.65604 20.1514 986466
0 9.1558 20.1668 986425
0 -19.8673 9.68127 994067
0 -19.0601 10.54 993565
0 -18.2529 11.3987 993086
0 -17.4457 12.2574 992631
0 -16.6386 13.1161 992215
0 -15.8314 13.9747 991841
0 -15.0242 14.8334 991500
0 -14.217 15.6921 991168
0 -13.4099 16.5508 990875
0 -12.6027 17.4095 990741
0 -11.7955 18.2682 990770
0 -10.9883 19.1269 990070
0 -19.8216 -5.27239 1.17479e+06
0 -19.8506 -4.33534 1.13338e+06
0 -19.8796 -3.39828 1.08832e+06
0 -19.9086 -2.46123 1.04506e+06
0 -19.9376 -1.52418 1.01632e+06
0 -19.9665 -0.587128 1.01408e+06
0 -19.9955 0.349924 1.01147e+06
0 -20.0245 1.28698 1.00575e+06
0 -20.0535 2.22403 992982
0 -20.0825 3.16108 990447
0 -20.1115 4.09813 991016
0 -20.1404 5.03518 992998
0 -20.1694 5.97224 994941
0 -20.1984 6.90929 995098
0 -20.2274 7.84634 994911
0 -20.2564 8.78339 994668
0 -15.0843 -10.1804 1.24394e+06
0 -15.943 -9.3732 1.21567e+06
0 -16.8017 -8.56602 1.19513e+06
0 -17.6604 -7.75885 1.18575e+06
0 -18.5191 -6.95167 1.19347e+06
0 -19.3778 -6.1445 1.20589e+06
