# p  FACE_DATA 148
#  x  y  z  p
0 -12.2964 -12.8705 1.32107e+06
0 -11.563 -12.7134 1.30816e+06
0 -10.8296 -12.5563 1.30125e+06
0 -10.0963 -12.3992 1.28934e+06
0 -9.36292 -12.2421 1.27793e+06
0 -8.62956 -12.085 1.27001e+06
0 -7.8962 -11.9279 1.26324e+06
0 -7.16284 -11.7708 1.25529e+06
0 -6.42947 -11.6137 1.24525e+06
0 -5.69611 -11.4566 1.23324e+06
0 -4.96275 -11.2995 1.22092e+06
0 -4.22939 -11.1424 1.20917e+06
0 -3.49603 -10.9853 1.19829e+06
0 -2.76267 -10.8282 1.18816e+06
0 -2.02931 -10.6711 1.17581e+06
0 -1.29595 -10.5139 1.16123e+06
0 -0.562585 -10.3568 1.14628e+06
0 0.170777 -10.1997 1.13208e+06
0 0.904138 -10.0426 1.11828e+06
0 1.6375 -9.88554 1.10486e+06
0 2.37086 -9.72844 1.09161e+06
0 3.10422 -9.57133 1.07828e+06
0 3.83758 -9.41423 1.06496e+06
0 4.57094 -9.25713 1.05146e+06
0 5.30431 -9.10003 1.03761e+06
0 6.03767 -8.94292 1.02354e+06
0 6.77103 -8.78582 1.00936e+06
0 7.50439 -8.62872 995154
0 8.23775 -8.47161 981164
0 8.97111 -8.31451 967554
0 9.70447 -8.15741 954577
0 10.4378 -8.00031 942891
0 11.1712 -7.8432 930764
0 11.9046 -7.6861 920075
0 12.6379 -7.529 910671
0 13.3713 -7.3719 902825
0 14.1046 -7.21479 896870
0 14.838 -7.05769 885544
0 15.5714 -6.90059 889490
0 16.3047 -6.74349 883704
0 16.9915 -6.17023 877923
0 17.6318 -5.18083 901619
0 18.2721 -4.19142 895347
0 18.9124 -3.20202 897092
0 19.5527 -2.21261 895020
0 20.193 -1.22321 895845
0 20.4149 -0.270157 893226
0 20.2186 0.646545 897828
0 20.0222 1.56325 913270
0 19.8258 2.47995 933739
0 19.6294 3.39665 955258
0 19.433 4.31335 974571
0 19.2367 5.23005 989189
0 19.0403 6.14675 997773
0 18.8439 7.06346 998544
0 18.6475 7.98016 999027
0 18.4512 8.89686 998934
0 18.2548 9.81356 998627
0 18.0584 10.7303 998322
0 17.862 11.647 998089
0 17.6656 12.5637 997969
0 17.4693 13.4804 997990
0 16.8764 14.2589 998258
0 15.887 14.8991 998536
0 14.8976 15.5394 998739
0 13.9082 16.1797 998806
0 12.9188 16.82 998785
0 11.9294 17.4603 998801
0 10.9399 18.1006 998868
0 9.95054 18.7409 998958
0 8.96114 19.3812 999040
0 7.97173 20.0214 999204
0 6.98233 20.6617 999223
0 5.99293 21.302 999684
0 -13.8136 17.4851 998740
0 -13.3247 17.5899 999813
0 -12.8358 17.6946 999658
0 -12.3469 17.7993 999531
0 -11.858 17.9041 999431
0 -11.3691 18.0088 999372
0 -10.8802 18.1135 999420
0 -10.3913 18.2183 999638
0 -9.90236 18.323 999891
0 -9.41346 18.4277 1.00008e+06
0 -8.92455 18.5325 1.00018e+06
0 -8.43564 18.6372 1.0002e+06
0 -7.94673 18.742 1.00008e+06
0 -7.45783 18.8467 1.00012e+06
0 -6.96892 18.9514 1.00019e+06
0 -6.48001 19.0562 1.0002e+06
0 -5.9911 19.1609 1.00021e+06
0 -5.5022 19.2656 1.00021e+06
0 -5.01329 19.3704 1.0002e+06
0 -4.52438 19.4751 1.00018e+06
0 -4.03547 19.5798 1.00015e+06
0 -3.54657 19.6846 1.0001e+06
0 -3.05766 19.7893 1.00005e+06
0 -2.56875 19.894 999998
0 -2.07984 19.9988 999984
0 -1.59094 20.1035 1.00007e+06
0 -1.10203 20.2082 1.00013e+06
0 -0.613121 20.313 999378
0 -0.124213 20.4177 1.0007e+06
0 0.364694 20.5224 1.00079e+06
0 0.853602 20.6272 1.00066e+06
0 1.34251 20.7319 1.00053e+06
0 1.83142 20.8367 1.00041e+06
0 2.32032 20.9414 1.00029e+06
0 2.80923 21.0461 1.00018e+06
0 3.29814 21.1509 1.00008e+06
0 3.78705 21.2556 999991
0 4.27595 21.3603 999919
0 4.76486 21.4651 999855
0 5.25377 21.5698 999653
0 -21.4214 6.05461 1.0189e+06
0 -20.7811 7.04402 1.0177e+06
0 -20.1408 8.03342 1.01837e+06
0 -19.5005 9.02282 1.0188e+06
0 -18.8602 10.0122 1.0193e+06
0 -18.2199 11.0016 1.0194e+06
0 -17.5797 11.991 1.00633e+06
0 -16.9394 12.9804 1.00202e+06
0 -16.2991 13.9698 1.00225e+06
0 -15.6588 14.9593 1.00126e+06
0 -15.0185 15.9487 1.00026e+06
0 -14.3782 16.9381 1.00081e+06
0 -18.6977 -8.64897 1.1518e+06
0 -18.894 -7.73226 1.09347e+06
0 -19.0904 -6.81556 1.059e+06
0 -19.2868 -5.89886 1.05493e+06
0 -19.4832 -4.98216 1.05107e+06
0 -19.6796 -4.06546 1.03987e+06
0 -19.8759 -3.14876 1.02913e+06
0 -20.0723 -2.23205 1.02367e+06
0 -20.2687 -1.31535 1.02384e+06
0 -20.4651 -0.398652 1.02383e+06
0 -20.6614 0.51805 1.02323e+06
0 -20.8578 1.43475 1.02251e+06
0 -21.0542 2.35145 1.02238e+06
0 -21.2506 3.26815 1.0224e+06
0 -21.447 4.18486 1.02221e+06
0 -21.6433 5.10156 1.02676e+06
0 -13.1577 -12.6289 1.31866e+06
0 -14.1472 -11.9886 1.26119e+06
0 -15.1366 -11.3483 1.25304e+06
0 -16.126 -10.708 1.22152e+06
0 -17.1154 -10.0677 1.19242e+06
0 -18.1048 -9.42746 1.17134e+06
