# p  FACE_DATA 148
#  x  y  z  p
0 -12.289 -12.9084 1.50618e+06
0 -11.5556 -12.7513 1.48809e+06
0 -10.8222 -12.5942 1.48373e+06
0 -10.0889 -12.4371 1.47919e+06
0 -9.35553 -12.2799 1.46189e+06
0 -8.62217 -12.1228 1.43977e+06
0 -7.88881 -11.9657 1.41897e+06
0 -7.15545 -11.8086 1.39716e+06
0 -6.42209 -11.6515 1.37378e+06
0 -5.68873 -11.4944 1.35115e+06
0 -4.95537 -11.3373 1.32659e+06
0 -4.22201 -11.1802 1.29983e+06
0 -3.48865 -11.0231 1.27294e+06
0 -2.75529 -10.866 1.2465e+06
0 -2.02193 -10.7089 1.22091e+06
0 -1.28857 -10.5517 1.19632e+06
0 -0.555208 -10.3946 1.17414e+06
0 0.178152 -10.2375 1.15513e+06
0 0.911512 -10.0804 1.13488e+06
0 1.64487 -9.92331 1.10594e+06
0 2.37823 -9.7662 1.0729e+06
0 3.11159 -9.60909 1.04384e+06
0 3.84495 -9.45198 1.019e+06
0 4.57831 -9.29487 994580
0 5.31167 -9.13776 969094
0 6.04503 -8.98065 944467
0 6.77839 -8.82354 921105
0 7.51175 -8.66643 899382
0 8.24511 -8.50932 878361
0 8.97847 -8.35221 859059
0 9.71183 -8.1951 849691
0 10.4452 -8.03799 839740
0 11.1785 -7.88089 821492
0 11.9119 -7.72378 799319
0 12.6453 -7.56667 782597
0 13.3786 -7.40956 768556
0 14.112 -7.25245 757537
0 14.8453 -7.09534 750417
0 15.5787 -6.93823 747601
0 16.3121 -6.78112 746353
0 16.9989 -6.20786 741473
0 17.6392 -5.21845 787419
0 18.2794 -4.22904 792596
0 18.9197 -3.23963 818670
0 19.56 -2.25022 835779
0 20.2003 -1.26081 854085
0 20.4222 -0.307755 886201
0 20.2258 0.608945 916138
0 20.0295 1.52564 926443
0 19.8331 2.44234 932278
0 19.6367 3.35904 932557
0 19.4403 4.27574 933090
0 19.2439 5.19244 933443
0 19.0475 6.10914 934711
0 18.8511 7.02584 939558
0 18.6547 7.94254 947526
0 18.4584 8.85924 960119
0 18.262 9.77594 977661
0 18.0656 10.6926 978504
0 17.8692 11.6093 978657
0 17.6728 12.526 978959
0 17.4764 13.4427 979415
0 16.8835 14.2212 980131
0 15.8941 14.8615 981428
0 14.9047 15.5018 982713
0 13.9153 16.1421 983385
0 12.9259 16.7823 983938
0 11.9365 17.4226 984404
0 10.9471 18.0629 984721
0 9.95766 18.7032 985113
0 8.96825 19.3435 985695
0 7.97884 19.9837 986252
0 6.98943 20.624 986883
0 6.00002 21.2643 987907
0 -13.8065 17.4472 993629
0 -13.3176 17.552 993105
0 -12.8287 17.6567 993122
0 -12.3398 17.7614 992913
0 -11.8509 17.8662 992751
0 -11.362 17.9709 992585
0 -10.8731 18.0757 992429
0 -10.3842 18.1804 992285
0 -9.89524 18.2851 992149
0 -9.40634 18.3899 992018
0 -8.91743 18.4946 991896
0 -8.42852 18.5994 991756
0 -7.93962 18.7041 991631
0 -7.45071 18.8088 991521
0 -6.9618 18.9136 991407
0 -6.4729 19.0183 991301
0 -5.98399 19.1231 991204
0 -5.49509 19.2278 991145
0 -5.00618 19.3325 991086
0 -4.51727 19.4373 991042
0 -4.02837 19.542 990987
0 -3.53946 19.6468 990889
0 -3.05055 19.7515 990745
0 -2.56165 19.8562 990585
0 -2.07274 19.961 990430
0 -1.58383 20.0657 990309
0 -1.09493 20.1705 990228
0 -0.606019 20.2752 990168
0 -0.117113 20.3799 990111
0 0.371794 20.4847 990047
0 0.8607 20.5894 989987
0 1.34961 20.6941 989752
0 1.83851 20.7989 989441
0 2.32742 20.9036 989403
0 2.81633 21.0084 989254
0 3.30523 21.1131 989075
0 3.79414 21.2178 988788
0 4.28305 21.3226 988447
0 4.77195 21.4273 988157
0 5.26086 21.5321 987877
0 -21.4142 6.01664 1.00079e+06
0 -20.7739 7.00605 999931
0 -20.1336 7.99546 999042
0 -19.4933 8.98487 998257
0 -18.853 9.97428 997601
0 -18.2128 10.9637 997088
0 -17.5725 11.9531 996657
0 -16.9322 12.9425 996239
0 -16.2919 13.9319 995805
0 -15.6516 14.9213 995327
0 -15.0114 15.9107 994823
0 -14.3711 16.9001 993869
0 -18.6903 -8.68692 1.25752e+06
0 -18.8867 -7.77022 1.20809e+06
0 -19.0831 -6.85352 1.16809e+06
0 -19.2795 -5.93682 1.13128e+06
0 -19.4758 -5.02012 1.08082e+06
0 -19.6722 -4.10342 1.07445e+06
0 -19.8686 -3.18672 1.07242e+06
0 -20.065 -2.27002 1.06248e+06
0 -20.2614 -1.35332 1.05475e+06
0 -20.4578 -0.436617 1.05098e+06
0 -20.6542 0.480083 1.04485e+06
0 -20.8506 1.39678 1.01401e+06
0 -21.0469 2.31348 1.004e+06
0 -21.2433 3.23018 1.00273e+06
0 -21.4397 4.14688 1.00243e+06
0 -21.6361 5.06358 1.00179e+06
0 -13.1504 -12.6668 1.50374e+06
0 -14.1398 -12.0265 1.43096e+06
0 -15.1292 -11.3862 1.4104e+06
0 -16.1186 -10.746 1.37844e+06
0 -17.108 -10.1057 1.35432e+06
0 -18.0974 -9.4654 1.3238e+06
