# p  FACE_DATA 148
#  x  y  z  p
0 -12.1452 -12.9794 1.30206e+06
0 -11.4137 -12.8136 1.29081e+06
0 -10.6823 -12.6478 1.28628e+06
0 -9.95085 -12.482 1.27711e+06
0 -9.21941 -12.3162 1.26806e+06
0 -8.48797 -12.1504 1.25846e+06
0 -7.75653 -11.9845 1.24705e+06
0 -7.02509 -11.8187 1.23325e+06
0 -6.29365 -11.6529 1.21765e+06
0 -5.5622 -11.4871 1.20263e+06
0 -4.83076 -11.3213 1.18829e+06
0 -4.09932 -11.1555 1.17493e+06
0 -3.36788 -10.9897 1.16316e+06
0 -2.63644 -10.8239 1.15302e+06
0 -1.905 -10.6581 1.14174e+06
0 -1.17356 -10.4922 1.12779e+06
0 -0.442114 -10.3264 1.11337e+06
0 0.289328 -10.1606 1.09973e+06
0 1.02077 -9.99481 1.08733e+06
0 1.75221 -9.829 1.0753e+06
0 2.48365 -9.66319 1.06392e+06
0 3.21509 -9.49738 1.0531e+06
0 3.94654 -9.33157 1.04258e+06
0 4.67798 -9.16576 1.03113e+06
0 5.40942 -8.99994 1.01838e+06
0 6.14086 -8.83413 1.00569e+06
0 6.8723 -8.66832 992774
0 7.60374 -8.50251 981305
0 8.33518 -8.3367 971424
0 9.06663 -8.17089 961790
0 9.79807 -8.00508 951782
0 10.5295 -7.83927 941601
0 11.261 -7.67346 931686
0 11.9924 -7.50765 922792
0 12.7238 -7.34183 915277
0 13.4553 -7.17602 909128
0 14.1867 -7.01021 903753
0 14.9182 -6.8444 900090
0 15.6496 -6.67859 900950
0 16.381 -6.51278 902707
0 17.061 -5.9314 896844
0 17.6895 -4.93445 931924
0 18.318 -3.93751 926337
0 18.9464 -2.94056 929048
0 19.5749 -1.94361 937005
0 20.2034 -0.946664 940121
0 20.414 0.0089602 939016
0 20.2067 0.923262 935248
0 19.9995 1.83756 935227
0 19.7922 2.75187 954178
0 19.5849 3.66617 976529
0 19.3777 4.58047 990205
0 19.1704 5.49477 993762
0 18.9632 6.40907 993242
0 18.7559 7.32338 993830
0 18.5486 8.23768 992696
0 18.3414 9.15198 992448
0 18.1341 10.0663 992358
0 17.9268 10.9806 992311
0 17.7196 11.8949 992317
0 17.5123 12.8092 992464
0 17.305 13.7235 992810
0 16.7029 14.4949 993133
0 15.706 15.1234 993512
0 14.709 15.7518 993869
0 13.7121 16.3803 994054
0 12.7152 17.0088 994185
0 11.7182 17.6373 994335
0 10.7213 18.2657 994470
0 9.72431 18.8942 994608
0 8.72736 19.5227 994764
0 7.73041 20.1512 994954
0 6.73347 20.7797 995108
0 5.73652 21.4081 995534
0 -14.0232 17.356 1.00096e+06
0 -13.5356 17.4666 999025
0 -13.048 17.5771 999386
0 -12.5604 17.6876 999062
0 -12.0727 17.7982 998810
0 -11.5851 17.9087 998607
0 -11.0975 18.0193 998502
0 -10.6099 18.1298 998515
0 -10.1222 18.2404 998531
0 -9.6346 18.3509 998459
0 -9.14697 18.4614 998331
0 -8.65934 18.572 998090
0 -8.17172 18.6825 997852
0 -7.68409 18.7931 997731
0 -7.19646 18.9036 997648
0 -6.70883 19.0141 997570
0 -6.2212 19.1247 997487
0 -5.73358 19.2352 997395
0 -5.24595 19.3458 997294
0 -4.75832 19.4563 997182
0 -4.27069 19.5668 997063
0 -3.78307 19.6774 996945
0 -3.29544 19.7879 996875
0 -2.80781 19.8985 996983
0 -2.32018 20.009 997206
0 -1.83256 20.1195 995379
0 -1.34493 20.2301 993421
0 -0.8573 20.3406 996083
0 -0.369672 20.4512 996745
0 0.117956 20.5617 996708
0 0.605583 20.6722 996617
0 1.09321 20.7828 996525
0 1.58084 20.8933 996432
0 2.06847 21.0039 996336
0 2.55609 21.1144 996223
0 3.04372 21.2249 996092
0 3.53135 21.3355 995952
0 4.01898 21.446 995812
0 4.5066 21.5566 995669
0 4.99423 21.6671 995505
0 -21.4946 5.83586 1.03765e+06
0 -20.8661 6.83281 1.03599e+06
0 -20.2376 7.82976 1.03549e+06
0 -19.6091 8.8267 1.03491e+06
0 -18.9806 9.82365 1.03116e+06
0 -18.3522 10.8206 1.01713e+06
0 -17.7237 11.8175 1.01105e+06
0 -17.0952 12.8145 1.00725e+06
0 -16.4667 13.8114 1.00523e+06
0 -15.8383 14.8084 1.00336e+06
0 -15.2098 15.8053 1.00281e+06
0 -14.5813 16.8023 1.00352e+06
0 -18.5962 -8.83429 1.15599e+06
0 -18.8035 -7.91999 1.11589e+06
0 -19.0107 -7.00569 1.07851e+06
0 -19.218 -6.09139 1.05295e+06
0 -19.4253 -5.17708 1.04674e+06
0 -19.6325 -4.26278 1.04586e+06
0 -19.8398 -3.34848 1.04617e+06
0 -20.0471 -2.43418 1.04617e+06
0 -20.2543 -1.51988 1.04663e+06
0 -20.4616 -0.605574 1.04609e+06
0 -20.6689 0.308728 1.0452e+06
0 -20.8761 1.22303 1.04454e+06
0 -21.0834 2.13733 1.04301e+06
0 -21.2906 3.05163 1.04157e+06
0 -21.4979 3.96594 1.04103e+06
0 -21.7052 4.88024 1.04058e+06
0 -13.0094 -12.7481 1.29975e+06
0 -14.0063 -12.1196 1.25901e+06
0 -15.0033 -11.4911 1.24096e+06
0 -16.0002 -10.8626 1.21971e+06
0 -16.9972 -10.2342 1.19374e+06
0 -17.9941 -9.60568 1.1743e+06
