# p  FACE_DATA 148
#  x  y  z  p
0 -14.2521 -10.4322 1.08724e+06
0 -13.5025 -10.4075 1.07112e+06
0 -12.7529 -10.3828 1.05484e+06
0 -12.0033 -10.3581 1.03829e+06
0 -11.2537 -10.3334 1.02523e+06
0 -10.5041 -10.3087 1.02039e+06
0 -9.75456 -10.284 1.01169e+06
0 -9.00496 -10.2593 1.00506e+06
0 -8.25537 -10.2346 1.00027e+06
0 -7.50577 -10.2099 991259
0 -6.75618 -10.1853 985038
0 -6.00659 -10.1606 977269
0 -5.25699 -10.1359 971461
0 -4.5074 -10.1112 967168
0 -3.75781 -10.0865 964013
0 -3.00821 -10.0618 962071
0 -2.25862 -10.0371 960890
0 -1.50903 -10.0124 960063
0 -0.759434 -9.98773 959595
0 -0.0098402 -9.96303 961948
0 0.739753 -9.93834 967027
0 1.48935 -9.91365 971404
0 2.23894 -9.88896 968569
0 2.98853 -9.86427 960641
0 3.73813 -9.83958 955785
0 4.48772 -9.81489 957662
0 5.23731 -9.7902 962598
0 5.98691 -9.76551 970427
0 6.7365 -9.74082 978505
0 7.48609 -9.71613 982034
0 8.23569 -9.69144 986967
0 8.98528 -9.66675 996663
0 9.73487 -9.64205 1.00577e+06
0 10.4845 -9.61736 1.02013e+06
0 11.2341 -9.59267 1.03989e+06
0 11.9837 -9.56798 1.06052e+06
0 12.7332 -9.54329 1.07675e+06
0 13.4828 -9.5186 1.09248e+06
0 14.2324 -9.49391 1.11768e+06
0 14.982 -9.46922 1.15195e+06
0 15.7595 -9.02672 1.14779e+06
0 16.565 -8.1664 1.12454e+06
0 17.3704 -7.30608 1.11351e+06
0 18.1759 -6.44577 1.11666e+06
0 18.9813 -5.58545 1.14104e+06
0 19.7868 -4.72514 1.17328e+06
0 20.1741 -3.82648 1.14573e+06
0 20.1432 -2.88949 1.11456e+06
0 20.1124 -1.9525 1.08912e+06
0 20.0815 -1.01551 1.06176e+06
0 20.0506 -0.0785162 1.02841e+06
0 20.0198 0.858476 1.004e+06
0 19.9889 1.79547 1.00459e+06
0 19.958 2.73246 1.00431e+06
0 19.9272 3.66945 999117
0 19.8963 4.60644 992667
0 19.8654 5.54343 991113
0 19.8346 6.48043 987857
0 19.8037 7.41742 988687
0 19.7729 8.35441 989480
0 19.742 9.2914 989458
0 19.7111 10.2284 988944
0 19.2655 11.0996 988568
0 18.4052 11.9051 988678
0 17.5449 12.7105 988285
0 16.6846 13.516 987630
0 15.8243 14.3214 987120
0 14.964 15.1269 986918
0 14.1036 15.9323 986870
0 13.2433 16.7377 986949
0 12.383 17.5432 987080
0 11.5227 18.3486 987383
0 10.6624 19.1541 987782
0 9.80206 19.9595 987459
0 -10.3674 19.7121 986217
0 -9.86766 19.7285 986321
0 -9.36793 19.745 986279
0 -8.8682 19.7615 986161
0 -8.36847 19.7779 986044
0 -7.86874 19.7944 985941
0 -7.36901 19.8108 985773
0 -6.86929 19.8273 985621
0 -6.36956 19.8438 985538
0 -5.86983 19.8602 985476
0 -5.3701 19.8767 985413
0 -4.87037 19.8931 985359
0 -4.37064 19.9096 985321
0 -3.87091 19.9261 985295
0 -3.37118 19.9425 985279
0 -2.87145 19.959 985271
0 -2.37172 19.9754 985264
0 -1.872 19.9919 985252
0 -1.37227 20.0084 985256
0 -0.872538 20.0248 985323
0 -0.372809 20.0413 985383
0 0.12692 20.0577 985425
0 0.626649 20.0742 985473
0 1.12638 20.0907 985519
0 1.62611 20.1071 985567
0 2.12584 20.1236 985623
0 2.62556 20.14 985688
0 3.12529 20.1565 985757
0 3.62502 20.173 985851
0 4.12475 20.1894 985954
0 4.62448 20.2059 985968
0 5.12421 20.2223 986012
0 5.62394 20.2388 986503
0 6.12367 20.2553 986713
0 6.6234 20.2717 986761
0 7.12313 20.2882 986853
0 7.62285 20.3046 986990
0 8.12258 20.3211 987117
0 8.62231 20.3376 987253
0 9.12204 20.354 987402
0 -19.8799 9.81021 987682
0 -19.0745 10.6705 987515
0 -18.269 11.5308 987142
0 -17.4636 12.3912 986632
0 -16.6581 13.2515 986321
0 -15.8527 14.1118 986216
0 -15.0472 14.9721 986005
0 -14.2418 15.8324 985800
0 -13.4363 16.6927 985724
0 -12.6309 17.553 985796
0 -11.8254 18.4134 986040
0 -11.02 19.2737 986342
0 -19.8042 -5.14332 1.07696e+06
0 -19.8351 -4.20633 1.05667e+06
0 -19.866 -3.26934 1.02651e+06
0 -19.8968 -2.33235 1.00396e+06
0 -19.9277 -1.39536 992760
0 -19.9586 -0.458364 989410
0 -19.9894 0.478627 987121
0 -20.0203 1.41562 985067
0 -20.0511 2.35261 985286
0 -20.082 3.2896 984180
0 -20.1129 4.22659 984285
0 -20.1437 5.16359 989183
0 -20.1746 6.10058 987906
0 -20.2055 7.03757 987738
0 -20.2363 7.97456 987655
0 -20.2672 8.91155 987655
0 -15.0571 -10.0418 1.08335e+06
0 -15.9174 -9.23633 1.10353e+06
0 -16.7777 -8.43089 1.07607e+06
0 -17.638 -7.62544 1.06441e+06
0 -18.4983 -6.81999 1.06444e+06
0 -19.3586 -6.01454 1.06439e+06
