# p  FACE_DATA 148
#  x  y  z  p
0 -14.6599 -9.84193 1.0309e+06
0 -13.9099 -9.84279 1.01607e+06
0 -13.1599 -9.84366 1.00388e+06
0 -12.4099 -9.84452 993752
0 -11.6599 -9.84539 980577
0 -10.9099 -9.84625 971580
0 -10.1599 -9.84712 969992
0 -9.40994 -9.84798 966900
0 -8.65994 -9.84885 963775
0 -7.90994 -9.84971 958661
0 -7.15994 -9.85058 954046
0 -6.40995 -9.85144 951944
0 -5.65995 -9.85231 951272
0 -4.90995 -9.85317 951437
0 -4.15995 -9.85404 952335
0 -3.40995 -9.8549 954584
0 -2.65995 -9.85577 958013
0 -1.90995 -9.85663 960758
0 -1.15995 -9.8575 963999
0 -0.409949 -9.85836 969357
0 0.34005 -9.85923 977569
0 1.09005 -9.86009 987813
0 1.84005 -9.86096 995683
0 2.59005 -9.86182 995140
0 3.34005 -9.86269 989646
0 4.09005 -9.86355 986648
0 4.84005 -9.86442 992181
0 5.59005 -9.86528 1.00481e+06
0 6.34005 -9.86615 1.02001e+06
0 7.09005 -9.86701 1.03507e+06
0 7.84005 -9.86788 1.04804e+06
0 8.59004 -9.86874 1.06295e+06
0 9.34004 -9.86961 1.08182e+06
0 10.09 -9.87047 1.09771e+06
0 10.84 -9.87134 1.11273e+06
0 11.59 -9.8722 1.13285e+06
0 12.34 -9.87307 1.15211e+06
0 13.09 -9.87393 1.16704e+06
0 13.84 -9.8748 1.18386e+06
0 14.59 -9.87566 1.21258e+06
0 15.3822 -9.45991 1.20887e+06
0 16.2165 -8.62754 1.18552e+06
0 17.0508 -7.79516 1.1734e+06
0 17.8851 -6.96279 1.17112e+06
0 18.7194 -6.13042 1.1799e+06
0 19.5537 -5.29805 1.18583e+06
0 19.9713 -4.41311 1.16359e+06
0 19.9724 -3.47561 1.14418e+06
0 19.9735 -2.53811 1.12322e+06
0 19.9746 -1.60061 1.0978e+06
0 19.9757 -0.663115 1.06973e+06
0 19.9768 0.274384 1.04764e+06
0 19.9778 1.21188 1.03238e+06
0 19.9789 2.14938 1.02995e+06
0 19.98 3.08688 1.02902e+06
0 19.9811 4.02438 1.02801e+06
0 19.9822 4.96188 1.0273e+06
0 19.9832 5.89938 1.02523e+06
0 19.9843 6.83688 1.02313e+06
0 19.9854 7.77438 1.00529e+06
0 19.9865 8.71188 993103
0 19.9876 9.64938 991988
0 19.5719 10.5353 991404
0 18.7395 11.3696 990655
0 17.9072 12.2039 989816
0 17.0748 13.0382 988395
0 16.2424 13.8724 986171
0 15.4101 14.7067 984485
0 14.5777 15.541 983958
0 13.7453 16.3753 983861
0 12.9129 17.2096 983976
0 12.0806 18.0439 984383
0 11.2482 18.8782 985091
0 10.4158 19.7125 984856
0 -9.75034 20.1524 982432
0 -9.25034 20.1519 982750
0 -8.75034 20.1513 982698
0 -8.25035 20.1507 982590
0 -7.75035 20.1501 982514
0 -7.25035 20.1495 982419
0 -6.75035 20.149 982282
0 -6.25035 20.1484 982161
0 -5.75035 20.1478 982072
0 -5.25035 20.1472 981996
0 -4.75035 20.1467 981898
0 -4.25035 20.1461 981776
0 -3.75035 20.1455 981754
0 -3.25035 20.1449 981733
0 -2.75035 20.1444 981714
0 -2.25035 20.1438 981725
0 -1.75035 20.1432 981761
0 -1.25035 20.1426 981825
0 -0.75035 20.1421 981915
0 -0.250351 20.1415 982009
0 0.249649 20.1409 982076
0 0.749649 20.1403 982115
0 1.24965 20.1397 982151
0 1.74965 20.1392 982201
0 2.24965 20.1386 982260
0 2.74965 20.138 982313
0 3.24965 20.1374 982363
0 3.74965 20.1369 982400
0 4.24965 20.1363 982195
0 4.74965 20.1357 982617
0 5.24965 20.1351 983004
0 5.74965 20.1346 983155
0 6.24965 20.134 983319
0 6.74964 20.1334 983500
0 7.24964 20.1328 983703
0 7.74964 20.1322 983908
0 8.24964 20.1317 984133
0 8.74964 20.1311 984356
0 9.24964 20.1305 984636
0 9.74964 20.1299 984809
0 -19.5947 10.5804 983187
0 -18.7604 11.4128 982464
0 -17.9261 12.2452 981889
0 -17.0918 13.0776 981614
0 -16.2575 13.9099 981353
0 -15.4233 14.7423 981232
0 -14.589 15.5747 981301
0 -13.7547 16.407 981540
0 -12.9204 17.2394 981692
0 -12.0861 18.0718 981907
0 -11.2518 18.9042 982197
0 -10.4175 19.7365 982637
0 -20.0286 -4.36698 1.03742e+06
0 -20.0275 -3.42948 1.01675e+06
0 -20.0265 -2.49198 997116
0 -20.0254 -1.55448 990971
0 -20.0243 -0.616984 989771
0 -20.0232 0.320515 989121
0 -20.0221 1.25801 988099
0 -20.0211 2.19551 985768
0 -20.02 3.13301 986058
0 -20.0189 4.07051 994166
0 -20.0178 5.00801 999319
0 -20.0167 5.94551 987418
0 -20.0157 6.88301 982885
0 -20.0146 7.82051 982467
0 -20.0135 8.75801 982595
0 -20.0124 9.69551 982867
0 -15.4511 -9.42435 1.02671e+06
0 -16.2835 -8.59005 1.05091e+06
0 -17.1159 -7.75576 1.03538e+06
0 -17.9482 -6.92147 1.0252e+06
0 -18.7806 -6.08717 1.02521e+06
0 -19.613 -5.25288 1.02813e+06
