# p  FACE_DATA 148
#  x  y  z  p
0 -12.5995 -12.5301 1.30521e+06
0 -11.8621 -12.3934 1.29385e+06
0 -11.1246 -12.2567 1.28775e+06
0 -10.3872 -12.12 1.27908e+06
0 -9.64977 -11.9834 1.26915e+06
0 -8.91233 -11.8467 1.25801e+06
0 -8.17488 -11.71 1.24596e+06
0 -7.43744 -11.5733 1.23327e+06
0 -6.7 -11.4367 1.22014e+06
0 -5.96256 -11.3 1.20693e+06
0 -5.22512 -11.1633 1.19368e+06
0 -4.48768 -11.0266 1.18045e+06
0 -3.75024 -10.89 1.16724e+06
0 -3.01279 -10.7533 1.15419e+06
0 -2.27535 -10.6166 1.14125e+06
0 -1.53791 -10.4799 1.12816e+06
0 -0.80047 -10.3433 1.11479e+06
0 -0.0630284 -10.2066 1.10134e+06
0 0.674413 -10.0699 1.08792e+06
0 1.41185 -9.93324 1.07467e+06
0 2.1493 -9.79656 1.0616e+06
0 2.88674 -9.65989 1.04894e+06
0 3.62418 -9.52321 1.03671e+06
0 4.36162 -9.38654 1.02494e+06
0 5.09906 -9.24986 1.01369e+06
0 5.8365 -9.11318 1.0028e+06
0 6.57394 -8.97651 992383
0 7.31139 -8.83983 982932
0 8.04883 -8.70316 974602
0 8.78627 -8.56648 967416
0 9.52371 -8.42981 960780
0 10.2612 -8.29313 954209
0 10.9986 -8.15646 948676
0 11.736 -8.01978 945061
0 12.4735 -7.88311 942943
0 13.2109 -7.74643 941413
0 13.9484 -7.60976 939949
0 14.6858 -7.47308 938752
0 15.4232 -7.3364 939175
0 16.1607 -7.19973 942392
0 16.8632 -6.64577 936805
0 17.5307 -5.67453 943804
0 18.1982 -4.70329 947274
0 18.8657 -3.73205 952579
0 19.5332 -2.76081 962662
0 20.2008 -1.78957 978595
0 20.4491 -0.843045 988522
0 20.2782 0.0787564 996062
0 20.1074 1.00056 1.00233e+06
0 19.9366 1.92236 1.00106e+06
0 19.7657 2.84416 1.00098e+06
0 19.5949 3.76596 1.00099e+06
0 19.424 4.68777 1.00099e+06
0 19.2532 5.60957 1.00098e+06
0 19.0823 6.53137 1.00097e+06
0 18.9115 7.45317 1.00095e+06
0 18.7406 8.37497 1.00095e+06
0 18.5698 9.29677 1.00096e+06
0 18.399 10.2186 1.001e+06
0 18.2281 11.1404 1.00106e+06
0 18.0573 12.0622 1.0011e+06
0 17.8864 12.984 1.00115e+06
0 17.3154 13.7786 1.00131e+06
0 16.3441 14.4462 1.00146e+06
0 15.3729 15.1137 1.00154e+06
0 14.4017 15.7812 1.00154e+06
0 13.4304 16.4487 1.00151e+06
0 12.4592 17.1162 1.00149e+06
0 11.4879 17.7837 1.0015e+06
0 10.5167 18.4513 1.00153e+06
0 9.54546 19.1188 1.00159e+06
0 8.57421 19.7863 1.00172e+06
0 7.60297 20.4538 1.00186e+06
0 6.63173 21.1213 1.00202e+06
0 -13.2732 17.856 1.00364e+06
0 -12.7816 17.9471 1.00353e+06
0 -12.2899 18.0382 1.00345e+06
0 -11.7983 18.1293 1.00336e+06
0 -11.3067 18.2204 1.00326e+06
0 -10.815 18.3116 1.00316e+06
0 -10.3234 18.4027 1.00307e+06
0 -9.83178 18.4938 1.00298e+06
0 -9.34016 18.5849 1.00291e+06
0 -8.84853 18.676 1.00283e+06
0 -8.3569 18.7671 1.00276e+06
0 -7.86527 18.8583 1.0027e+06
0 -7.37365 18.9494 1.00264e+06
0 -6.88202 19.0405 1.00259e+06
0 -6.39039 19.1316 1.00256e+06
0 -5.89876 19.2227 1.00252e+06
0 -5.40714 19.3138 1.0025e+06
0 -4.91551 19.405 1.00248e+06
0 -4.42388 19.4961 1.00246e+06
0 -3.93225 19.5872 1.00245e+06
0 -3.44063 19.6783 1.00244e+06
0 -2.949 19.7694 1.00243e+06
0 -2.45737 19.8605 1.00243e+06
0 -1.96574 19.9517 1.00242e+06
0 -1.47412 20.0428 1.00242e+06
0 -0.982488 20.1339 1.00241e+06
0 -0.49086 20.225 1.0024e+06
0 0.000767233 20.3161 1.00239e+06
0 0.492395 20.4073 1.00239e+06
0 0.984022 20.4984 1.00238e+06
0 1.47565 20.5895 1.00237e+06
0 1.96728 20.6806 1.00236e+06
0 2.45891 20.7717 1.00234e+06
0 2.95053 20.8628 1.00231e+06
0 3.44216 20.954 1.00228e+06
0 3.93379 21.0451 1.00223e+06
0 4.42542 21.1362 1.00218e+06
0 4.91704 21.2273 1.00212e+06
0 5.40867 21.3184 1.00206e+06
0 5.9003 21.4095 1.00199e+06
0 -21.1954 6.64115 1.0065e+06
0 -20.5279 7.61239 1.00605e+06
0 -19.8604 8.58363 1.00565e+06
0 -19.1929 9.55487 1.00534e+06
0 -18.5254 10.5261 1.0051e+06
0 -17.8579 11.4974 1.0049e+06
0 -17.1903 12.4686 1.00473e+06
0 -16.5228 13.4398 1.00456e+06
0 -15.8553 14.4111 1.00439e+06
0 -15.1878 15.3823 1.0042e+06
0 -14.5203 16.3536 1.00397e+06
0 -13.8528 17.3248 1.0037e+06
0 -18.8811 -8.1324 1.17893e+06
0 -19.052 -7.2106 1.15193e+06
0 -19.2228 -6.2888 1.12555e+06
0 -19.3937 -5.36699 1.09968e+06
0 -19.5645 -4.44519 1.07605e+06
0 -19.7353 -3.52339 1.05447e+06
0 -19.9062 -2.60159 1.02891e+06
0 -20.077 -1.67979 1.01111e+06
0 -20.2479 -0.757985 1.00812e+06
0 -20.4187 0.163817 1.00795e+06
0 -20.5896 1.08562 1.00777e+06
0 -20.7604 2.00742 1.00757e+06
0 -20.9313 2.92922 1.00737e+06
0 -21.1021 3.85102 1.00719e+06
0 -21.2729 4.77283 1.007e+06
0 -21.4438 5.69463 1.00679e+06
0 -13.4539 -12.2646 1.30253e+06
0 -14.4251 -11.5971 1.27999e+06
0 -15.3964 -10.9296 1.26068e+06
0 -16.3676 -10.2621 1.24291e+06
0 -17.3388 -9.59458 1.22559e+06
0 -18.3101 -8.92706 1.20585e+06
