# p  FACE_DATA 148
#  x  y  z  p
0 -14.6711 -9.81525 1.02471e+06
0 -13.9211 -9.8173 1.01954e+06
0 -13.1711 -9.81935 1.01389e+06
0 -12.4211 -9.82139 1.00746e+06
0 -11.6711 -9.82344 1.00495e+06
0 -10.9211 -9.82549 1.0051e+06
0 -10.1711 -9.82754 1.00908e+06
0 -9.42112 -9.82959 1.01351e+06
0 -8.67113 -9.83164 1.01646e+06
0 -7.92113 -9.83369 1.01844e+06
0 -7.17113 -9.83573 1.01961e+06
0 -6.42114 -9.83778 1.02148e+06
0 -5.67114 -9.83983 1.0246e+06
0 -4.92114 -9.84188 1.0286e+06
0 -4.17114 -9.84393 1.03298e+06
0 -3.42115 -9.84598 1.03849e+06
0 -2.67115 -9.84803 1.04313e+06
0 -1.92115 -9.85007 1.04812e+06
0 -1.17116 -9.85212 1.05415e+06
0 -0.421158 -9.85417 1.06191e+06
0 0.328839 -9.85622 1.06432e+06
0 1.07884 -9.85827 1.05776e+06
0 1.82883 -9.86032 1.04859e+06
0 2.57883 -9.86237 1.04416e+06
0 3.32883 -9.86441 1.0458e+06
0 4.07882 -9.86646 1.05089e+06
0 4.82882 -9.86851 1.05927e+06
0 5.57882 -9.87056 1.06979e+06
0 6.32882 -9.87261 1.07996e+06
0 7.07881 -9.87466 1.08984e+06
0 7.82881 -9.87671 1.10028e+06
0 8.57881 -9.87875 1.11078e+06
0 9.32881 -9.8808 1.11844e+06
0 10.0788 -9.88285 1.12956e+06
0 10.8288 -9.8849 1.14537e+06
0 11.5788 -9.88695 1.15969e+06
0 12.3288 -9.889 1.17145e+06
0 13.0788 -9.89105 1.1819e+06
0 13.8288 -9.89309 1.19677e+06
0 14.5788 -9.89514 1.22385e+06
0 15.3716 -9.48064 1.21967e+06
0 16.2072 -8.64959 1.19645e+06
0 17.0428 -7.81853 1.18042e+06
0 17.8784 -6.98748 1.1659e+06
0 18.714 -6.15642 1.1832e+06
0 19.5496 -5.32537 1.24944e+06
0 19.9687 -4.44109 1.16864e+06
0 19.9713 -3.5036 1.08812e+06
0 19.9738 -2.5661 1.02584e+06
0 19.9764 -1.6286 993210
0 19.9789 -0.691108 1.00641e+06
0 19.9815 0.246388 1.00904e+06
0 19.9841 1.18388 1.00955e+06
0 19.9866 2.12138 1.00864e+06
0 19.9892 3.05888 1.00776e+06
0 19.9917 3.99637 1.00714e+06
0 19.9943 4.93387 1.00689e+06
0 19.9969 5.87137 1.00679e+06
0 19.9994 6.80886 1.00684e+06
0 20.002 7.74636 1.00465e+06
0 20.0046 8.68386 1.00144e+06
0 20.0071 9.62135 1.00083e+06
0 19.5929 10.5079 1.00084e+06
0 18.7618 11.3435 1.00076e+06
0 17.9308 12.1791 1.00028e+06
0 17.0997 13.0147 999556
0 16.2687 13.8503 999055
0 15.4376 14.6859 998707
0 14.6065 15.5215 998456
0 13.7755 16.3571 998285
0 12.9444 17.1928 998176
0 12.1134 18.0284 998233
0 11.2823 18.864 998283
0 10.4513 19.6996 998144
0 -9.71418 20.1713 991619
0 -9.21418 20.17 991651
0 -8.71418 20.1686 991672
0 -8.21419 20.1672 991643
0 -7.71419 20.1659 991589
0 -7.21419 20.1645 991509
0 -6.71419 20.1631 991407
0 -6.21419 20.1618 991290
0 -5.7142 20.1604 991173
0 -5.2142 20.159 991064
0 -4.7142 20.1577 990980
0 -4.2142 20.1563 990945
0 -3.7142 20.1549 990991
0 -3.21421 20.1536 991119
0 -2.71421 20.1522 991356
0 -2.21421 20.1508 991750
0 -1.71421 20.1495 992276
0 -1.21421 20.1481 992878
0 -0.714215 20.1467 993566
0 -0.214216 20.1454 994283
0 0.285782 20.144 994932
0 0.78578 20.1426 995480
0 1.28578 20.1413 995925
0 1.78578 20.1399 996271
0 2.28577 20.1385 996538
0 2.78577 20.1372 996725
0 3.28577 20.1358 996852
0 3.78577 20.1344 996938
0 4.28577 20.1331 996992
0 4.78576 20.1317 997038
0 5.28576 20.1304 997087
0 5.78576 20.129 997180
0 6.28576 20.1276 997282
0 6.78576 20.1263 997411
0 7.28576 20.1249 997578
0 7.78575 20.1235 997745
0 8.28575 20.1222 997862
0 8.78575 20.1208 997932
0 9.28575 20.1194 997964
0 9.78575 20.1181 998096
0 -19.5737 10.6149 992446
0 -18.738 11.4459 992167
0 -17.9024 12.277 991812
0 -17.0668 13.108 991591
0 -16.2312 13.9391 991412
0 -15.3956 14.7702 991215
0 -14.56 15.6012 991660
0 -13.7244 16.4323 991321
0 -12.8888 17.2633 991417
0 -12.0532 18.0944 991454
0 -11.2176 18.9254 991421
0 -10.382 19.7565 991686
0 -20.0311 -4.33184 1.04115e+06
0 -20.0286 -3.39434 1.02478e+06
0 -20.026 -2.45684 1.00294e+06
0 -20.0235 -1.51935 989444
0 -20.0209 -0.581851 977562
0 -20.0183 0.355645 971330
0 -20.0158 1.29314 971897
0 -20.0132 2.23064 973117
0 -20.0107 3.16813 977616
0 -20.0081 4.10563 982177
0 -20.0055 5.04313 984002
0 -20.003 5.98062 984639
0 -20.0004 6.91812 990536
0 -19.9979 7.85562 990505
0 -19.9953 8.79311 991982
0 -19.9927 9.73061 992475
0 -15.4616 -9.39642 1.02202e+06
0 -16.2927 -8.56081 1.03206e+06
0 -17.1237 -7.72521 1.02014e+06
0 -17.9548 -6.8896 1.01289e+06
0 -18.7858 -6.054 1.01411e+06
0 -19.6169 -5.21839 1.01924e+06
