# p  FACE_DATA 148
#  x  y  z  p
0 -15.8819 -7.84245 789997
0 -15.1394 -7.94849 779110
0 -14.397 -8.05453 782780
0 -13.6545 -8.16057 782331
0 -12.912 -8.26661 782101
0 -12.1696 -8.37265 784373
0 -11.4271 -8.47869 789613
0 -10.6846 -8.58473 798902
0 -9.94216 -8.69077 811114
0 -9.19969 -8.79681 825304
0 -8.45723 -8.90285 842013
0 -7.71476 -9.00889 860325
0 -6.97229 -9.11493 878787
0 -6.22983 -9.22097 897134
0 -5.48736 -9.32701 915916
0 -4.7449 -9.43305 938570
0 -4.00243 -9.53909 962081
0 -3.25997 -9.64513 980551
0 -2.5175 -9.75117 1.00044e+06
0 -1.77503 -9.85721 1.02497e+06
0 -1.03257 -9.96325 1.05267e+06
0 -0.290102 -10.0693 1.08269e+06
0 0.452364 -10.1753 1.11053e+06
0 1.19483 -10.2814 1.12728e+06
0 1.9373 -10.3874 1.13777e+06
0 2.67976 -10.4935 1.15229e+06
0 3.42223 -10.5995 1.17453e+06
0 4.16469 -10.7055 1.19906e+06
0 4.90716 -10.8116 1.2242e+06
0 5.64962 -10.9176 1.25124e+06
0 6.39209 -11.0237 1.27882e+06
0 7.13456 -11.1297 1.30568e+06
0 7.87702 -11.2357 1.33119e+06
0 8.61949 -11.3418 1.3564e+06
0 9.36195 -11.4478 1.38136e+06
0 10.1044 -11.5539 1.4045e+06
0 10.8469 -11.6599 1.42965e+06
0 11.5894 -11.7659 1.44923e+06
0 12.3318 -11.872 1.46392e+06
0 13.0743 -11.978 1.48982e+06
0 13.9169 -11.6775 1.48714e+06
0 14.8597 -10.9703 1.43248e+06
0 15.8025 -10.2632 1.39968e+06
0 16.7453 -9.55604 1.37707e+06
0 17.688 -8.8489 1.37131e+06
0 18.6308 -8.14176 1.37228e+06
0 19.1685 -7.32415 1.2945e+06
0 19.301 -6.39607 1.22057e+06
0 19.4336 -5.46799 1.15467e+06
0 19.5661 -4.53991 1.10275e+06
0 19.6987 -3.61182 1.06567e+06
0 19.8312 -2.68374 1.04477e+06
0 19.9638 -1.75566 1.0339e+06
0 20.0963 -0.827578 1.03107e+06
0 20.2289 0.100504 1.03214e+06
0 20.3614 1.02859 1.03209e+06
0 20.494 1.95667 1.03317e+06
0 20.6265 2.88475 1.04403e+06
0 20.7591 3.81283 1.05685e+06
0 20.8916 4.74092 1.05266e+06
0 21.0242 5.669 1.05207e+06
0 21.1567 6.59708 1.0749e+06
0 20.8695 7.53251 1.00032e+06
0 20.1623 8.4753 981429
0 19.4552 9.41808 983293
0 18.748 10.3609 983527
0 18.0409 11.3037 982673
0 17.3338 12.2464 982771
0 16.6266 13.1892 984859
0 15.9195 14.132 986669
0 15.2123 15.0748 987338
0 14.5052 16.0176 987429
0 13.7981 16.9604 987279
0 13.0909 17.9031 986253
0 -6.81425 21.1669 982046
0 -6.31927 21.0962 982446
0 -5.8243 21.0255 982591
0 -5.32932 20.9548 982741
0 -4.83434 20.8842 982881
0 -4.33937 20.8135 982974
0 -3.84439 20.7428 983002
0 -3.34941 20.6721 982952
0 -2.85443 20.6014 982806
0 -2.35946 20.5307 982583
0 -1.86448 20.46 982348
0 -1.3695 20.3893 982093
0 -0.874525 20.3186 981897
0 -0.379548 20.2479 981848
0 0.115429 20.1772 981823
0 0.610407 20.1065 981570
0 1.10538 20.0358 981276
0 1.60036 19.9651 981559
0 2.09534 19.8944 981817
0 2.59032 19.8237 981917
0 3.08529 19.7531 981977
0 3.58027 19.6824 982083
0 4.07525 19.6117 982206
0 4.57022 19.541 982326
0 5.0652 19.4703 982434
0 5.56018 19.3996 982518
0 6.05516 19.3289 982575
0 6.55013 19.2582 982616
0 7.04511 19.1875 982665
0 7.54009 19.1168 982800
0 8.03506 19.0461 982764
0 8.53004 18.9754 983154
0 9.02502 18.9047 983815
0 9.52 18.834 984172
0 10.015 18.7633 984492
0 10.51 18.6927 984780
0 11.0049 18.622 985071
0 11.4999 18.5513 985394
0 11.9949 18.4806 985683
0 12.4899 18.4099 986149
0 -17.9038 13.0702 973841
0 -16.961 13.7773 975001
0 -16.0182 14.4844 976724
0 -15.0754 15.1916 978306
0 -14.1326 15.8987 979064
0 -13.1898 16.6059 979201
0 -12.2471 17.313 977889
0 -11.3043 18.0201 979189
0 -10.3615 18.7273 980070
0 -9.4187 19.4344 980685
0 -8.47592 20.1416 981227
0 -7.53313 20.8487 982107
0 -20.4297 -1.66868 841405
0 -20.2971 -0.740598 842770
0 -20.1646 0.187484 885593
0 -20.032 1.11557 934993
0 -19.8995 2.04365 948310
0 -19.7669 2.97173 948511
0 -19.6344 3.89981 945340
0 -19.5018 4.8279 953823
0 -19.3693 5.75598 961456
0 -19.2367 6.68406 967114
0 -19.1042 7.61214 969865
0 -18.9716 8.54022 972789
0 -18.8391 9.46831 972727
0 -18.7065 10.3964 972636
0 -18.574 11.3245 972837
0 -18.4414 12.2526 973393
0 -16.6067 -7.31804 787326
0 -17.3138 -6.37525 820008
0 -18.021 -5.43247 829702
0 -18.7281 -4.48968 832002
0 -19.4352 -3.5469 842480
0 -20.1424 -2.60411 841304
