# p  FACE_DATA 148
#  x  y  z  p
0 -15.4105 -8.74137 927226
0 -14.6632 -8.80411 915682
0 -13.9158 -8.86685 906038
0 -13.1684 -8.92959 898284
0 -12.421 -8.99233 892665
0 -11.6737 -9.05507 889429
0 -10.9263 -9.1178 888897
0 -10.1789 -9.18054 890654
0 -9.43155 -9.24328 893168
0 -8.68418 -9.30602 895915
0 -7.93681 -9.36876 899838
0 -7.18944 -9.4315 905007
0 -6.44207 -9.49423 912281
0 -5.6947 -9.55697 921819
0 -4.94733 -9.61971 929755
0 -4.19996 -9.68245 938660
0 -3.45258 -9.74519 952820
0 -2.70521 -9.80793 969857
0 -1.95784 -9.87066 979129
0 -1.21047 -9.9334 984388
0 -0.463099 -9.99614 992690
0 0.284273 -10.0589 1.00732e+06
0 1.03164 -10.1216 1.02328e+06
0 1.77902 -10.1844 1.04062e+06
0 2.52639 -10.2471 1.05846e+06
0 3.27376 -10.3098 1.07486e+06
0 4.02113 -10.3726 1.08935e+06
0 4.7685 -10.4353 1.1022e+06
0 5.51587 -10.498 1.11405e+06
0 6.26324 -10.5608 1.12616e+06
0 7.01061 -10.6235 1.14091e+06
0 7.75799 -10.6863 1.15623e+06
0 8.50536 -10.749 1.17356e+06
0 9.25273 -10.8117 1.19437e+06
0 10.0001 -10.8745 1.21433e+06
0 10.7475 -10.9372 1.22974e+06
0 11.4948 -11 1.24931e+06
0 12.2422 -11.0627 1.27522e+06
0 12.9896 -11.1254 1.3025e+06
0 13.737 -11.1882 1.33505e+06
0 14.5607 -10.8392 1.33157e+06
0 15.4608 -10.0785 1.28414e+06
0 16.3609 -9.31778 1.25797e+06
0 17.2611 -8.55708 1.24592e+06
0 18.1612 -7.79637 1.24841e+06
0 19.0613 -7.03567 1.24799e+06
0 19.5506 -6.18821 1.20689e+06
0 19.629 -5.254 1.15825e+06
0 19.7074 -4.31978 1.11438e+06
0 19.7859 -3.38557 1.07259e+06
0 19.8643 -2.45135 1.02924e+06
0 19.9427 -1.51714 1.0069e+06
0 20.0211 -0.582926 1.0032e+06
0 20.0995 0.351288 1.00132e+06
0 20.178 1.2855 1.00016e+06
0 20.2564 2.21972 999531
0 20.3348 3.15393 998789
0 20.4132 4.08814 997937
0 20.4917 5.02236 997191
0 20.5701 5.95657 996334
0 20.6485 6.89079 995402
0 20.7269 7.825 994604
0 20.3858 8.74217 993716
0 19.6251 9.64229 992876
0 18.8644 10.5424 992589
0 18.1037 11.4425 992548
0 17.343 12.3427 992166
0 16.5823 13.2428 991366
0 15.8216 14.1429 990660
0 15.0609 15.043 990303
0 14.3002 15.9431 989978
0 13.5395 16.8433 989702
0 12.7788 17.7434 989399
0 12.0181 18.6435 988920
0 -8.04308 20.7457 985268
0 -7.54483 20.7039 985637
0 -7.04658 20.662 985682
0 -6.54834 20.6202 985709
0 -6.05009 20.5784 985800
0 -5.55184 20.5366 985911
0 -5.05359 20.4947 986051
0 -4.55535 20.4529 986211
0 -4.0571 20.4111 986336
0 -3.55885 20.3692 986411
0 -3.0606 20.3274 986479
0 -2.56236 20.2856 986546
0 -2.06411 20.2438 986595
0 -1.56586 20.2019 986557
0 -1.06761 20.1601 986424
0 -0.569366 20.1183 986723
0 -0.0711179 20.0765 986855
0 0.42713 20.0346 986815
0 0.925377 19.9928 986780
0 1.42362 19.951 986794
0 1.92187 19.9092 986847
0 2.42012 19.8673 986873
0 2.91837 19.8255 986868
0 3.41661 19.7837 986859
0 3.91486 19.7419 986861
0 4.41311 19.7 986887
0 4.91136 19.6582 986946
0 5.40961 19.6164 987000
0 5.90785 19.5746 987010
0 6.4061 19.5327 986965
0 6.90435 19.4909 986690
0 7.4026 19.4491 987014
0 7.90084 19.4073 987435
0 8.39909 19.3654 987720
0 8.89734 19.3236 987873
0 9.39559 19.2818 988077
0 9.89383 19.24 988239
0 10.3921 19.1981 988412
0 10.8903 19.1563 988609
0 11.3886 19.1145 988867
0 -18.6436 12.0185 981192
0 -17.7435 12.7792 981544
0 -16.8434 13.5399 981791
0 -15.9432 14.3006 982032
0 -15.0431 15.0613 983605
0 -14.143 15.822 983402
0 -13.2429 16.5827 983782
0 -12.3428 17.3434 984118
0 -11.4426 18.1041 984380
0 -10.5425 18.8648 984630
0 -9.64239 19.6255 984887
0 -8.74226 20.3862 985392
0 -20.3092 -2.84217 1.0284e+06
0 -20.2308 -1.90795 1.01866e+06
0 -20.1524 -0.973739 992675
0 -20.074 -0.0395249 982106
0 -19.9955 0.894689 982144
0 -19.9171 1.8289 984430
0 -19.8387 2.76312 981943
0 -19.7603 3.69733 980446
0 -19.6818 4.63155 980075
0 -19.6034 5.56576 979717
0 -19.525 6.49997 979574
0 -19.4466 7.43419 979647
0 -19.3681 8.3684 979896
0 -19.2897 9.30262 980188
0 -19.2113 10.2368 980355
0 -19.1329 11.171 980484
0 -16.1646 -8.25994 922371
0 -16.9253 -7.35982 964020
0 -17.686 -6.4597 955057
0 -18.4467 -5.55958 953947
0 -19.2074 -4.65946 967594
0 -19.9681 -3.75934 987340
