# p  FACE_DATA 148
#  x  y  z  p
0 -15.7502 -8.22836 1.01932e+06
0 -15.0061 -8.32206 1.00928e+06
0 -14.2619 -8.41575 1.00253e+06
0 -13.5178 -8.50944 999685
0 -12.7737 -8.60314 997734
0 -12.0296 -8.69683 994987
0 -11.2854 -8.79052 992261
0 -10.5413 -8.88422 991450
0 -9.7972 -8.97791 993382
0 -9.05307 -9.07161 996114
0 -8.30895 -9.1653 998108
0 -7.56483 -9.25899 1.00046e+06
0 -6.8207 -9.35269 1.00419e+06
0 -6.07658 -9.44638 1.00855e+06
0 -5.33245 -9.54007 1.0129e+06
0 -4.58833 -9.63377 1.01755e+06
0 -3.8442 -9.72746 1.0224e+06
0 -3.10008 -9.82115 1.02693e+06
0 -2.35595 -9.91485 1.03234e+06
0 -1.61183 -10.0085 1.03957e+06
0 -0.867703 -10.1022 1.0489e+06
0 -0.123578 -10.1959 1.06132e+06
0 0.620546 -10.2896 1.07561e+06
0 1.36467 -10.3833 1.08818e+06
0 2.1088 -10.477 1.09562e+06
0 2.85292 -10.5707 1.10332e+06
0 3.59704 -10.6644 1.11322e+06
0 4.34117 -10.7581 1.12449e+06
0 5.08529 -10.8518 1.13532e+06
0 5.82942 -10.9455 1.14574e+06
0 6.57354 -11.0392 1.15619e+06
0 7.31767 -11.1329 1.16682e+06
0 8.06179 -11.2266 1.17788e+06
0 8.80592 -11.3203 1.18912e+06
0 9.55004 -11.4139 1.20047e+06
0 10.2942 -11.5076 1.21164e+06
0 11.0383 -11.6013 1.2223e+06
0 11.7824 -11.695 1.23194e+06
0 12.5265 -11.7887 1.24008e+06
0 13.2707 -11.8824 1.25215e+06
0 14.1082 -11.5679 1.24897e+06
0 15.0391 -10.8452 1.23586e+06
0 15.97 -10.1225 1.21787e+06
0 16.9009 -9.39981 1.20068e+06
0 17.8318 -8.67711 1.18588e+06
0 18.7627 -7.9544 1.16996e+06
0 19.2867 -7.12798 1.15246e+06
0 19.4039 -6.19782 1.13192e+06
0 19.521 -5.26766 1.10667e+06
0 19.6381 -4.33751 1.07986e+06
0 19.7552 -3.40735 1.05728e+06
0 19.8723 -2.4772 1.03997e+06
0 19.9894 -1.54704 1.0215e+06
0 20.1066 -0.616886 1.00946e+06
0 20.2237 0.31327 1.00687e+06
0 20.3408 1.24343 1.00676e+06
0 20.4579 2.17358 1.00663e+06
0 20.575 3.10374 1.00649e+06
0 20.6921 4.03389 1.00636e+06
0 20.8093 4.96405 1.00624e+06
0 20.9264 5.89421 1.00616e+06
0 21.0435 6.82436 1.00606e+06
0 20.7407 7.75489 1.0059e+06
0 20.018 8.6858 1.00545e+06
0 19.2953 9.61671 1.005e+06
0 18.5726 10.5476 1.00463e+06
0 17.8499 11.4785 1.00437e+06
0 17.1272 12.4094 1.00418e+06
0 16.4045 13.3403 1.00402e+06
0 15.6818 14.2713 1.00391e+06
0 14.9591 15.2022 1.00379e+06
0 14.2364 16.1331 1.00365e+06
0 13.5137 17.064 1.00352e+06
0 12.791 17.9949 1.00338e+06
0 -7.16564 20.9276 1.00212e+06
0 -6.66956 20.8652 1.00213e+06
0 -6.17347 20.8027 1.00214e+06
0 -5.67739 20.7402 1.00215e+06
0 -5.18131 20.6778 1.00215e+06
0 -4.68523 20.6153 1.00215e+06
0 -4.18914 20.5528 1.00214e+06
0 -3.69306 20.4904 1.00212e+06
0 -3.19698 20.4279 1.00211e+06
0 -2.70089 20.3655 1.00209e+06
0 -2.20481 20.303 1.00207e+06
0 -1.70873 20.2405 1.00206e+06
0 -1.21264 20.1781 1.00205e+06
0 -0.716561 20.1156 1.00205e+06
0 -0.220478 20.0531 1.00204e+06
0 0.275606 19.9907 1.00203e+06
0 0.771689 19.9282 1.00201e+06
0 1.26777 19.8658 1.002e+06
0 1.76385 19.8033 1.00198e+06
0 2.25994 19.7408 1.00198e+06
0 2.75602 19.6784 1.00198e+06
0 3.2521 19.6159 1.00199e+06
0 3.74819 19.5534 1.00201e+06
0 4.24427 19.491 1.00204e+06
0 4.74035 19.4285 1.00208e+06
0 5.23644 19.3661 1.00213e+06
0 5.73252 19.3036 1.00219e+06
0 6.2286 19.2411 1.00225e+06
0 6.72469 19.1787 1.00232e+06
0 7.22077 19.1162 1.00241e+06
0 7.71685 19.0537 1.00249e+06
0 8.21294 18.9913 1.00258e+06
0 8.70902 18.9288 1.00268e+06
0 9.2051 18.8664 1.00277e+06
0 9.70118 18.8039 1.00287e+06
0 10.1973 18.7414 1.00299e+06
0 10.6934 18.679 1.0031e+06
0 11.1894 18.6165 1.00319e+06
0 11.6855 18.554 1.00325e+06
0 12.1816 18.4916 1.00333e+06
0 -18.1191 12.6478 1.00212e+06
0 -17.1882 13.3705 1.00212e+06
0 -16.2573 14.0932 1.00214e+06
0 -15.3264 14.8159 1.00209e+06
0 -14.3955 15.5386 1.00198e+06
0 -13.4646 16.2613 1.00187e+06
0 -12.5337 16.984 1.00183e+06
0 -11.6028 17.7067 1.00182e+06
0 -10.6719 18.4294 1.00185e+06
0 -9.74096 19.1521 1.00197e+06
0 -8.81005 19.8748 1.00213e+06
0 -7.87914 20.5975 1.00216e+06
0 -20.3999 -2.13098 1.02264e+06
0 -20.2828 -1.20083 1.01004e+06
0 -20.1657 -0.270672 1.00319e+06
0 -20.0486 0.659484 1.00262e+06
0 -19.9314 1.58964 1.00248e+06
0 -19.8143 2.5198 1.00232e+06
0 -19.6972 3.44995 1.00223e+06
0 -19.5801 4.38011 1.00219e+06
0 -19.463 5.31026 1.00216e+06
0 -19.3459 6.24042 1.00212e+06
0 -19.2287 7.17058 1.00209e+06
0 -19.1116 8.10073 1.00207e+06
0 -18.9945 9.03089 1.0021e+06
0 -18.8774 9.96104 1.00215e+06
0 -18.7603 10.8912 1.00218e+06
0 -18.6432 11.8214 1.00214e+06
0 -16.4836 -7.71606 1.01415e+06
0 -17.2063 -6.78515 1.00721e+06
0 -17.929 -5.85424 1.00232e+06
0 -18.6517 -4.92333 1.00224e+06
0 -19.3744 -3.99242 1.01172e+06
0 -20.0971 -3.06152 1.02862e+06
