# p  FACE_DATA 148
#  x  y  z  p
0 -12.3581 -12.7401 1.37895e+06
0 -11.6228 -12.592 1.37036e+06
0 -10.8876 -12.444 1.36618e+06
0 -10.1523 -12.2959 1.36072e+06
0 -9.41709 -12.1478 1.34214e+06
0 -8.68185 -11.9998 1.31981e+06
0 -7.94661 -11.8517 1.30395e+06
0 -7.21137 -11.7037 1.2902e+06
0 -6.47613 -11.5556 1.27475e+06
0 -5.74089 -11.4075 1.25668e+06
0 -5.00565 -11.2595 1.23767e+06
0 -4.27041 -11.1114 1.21898e+06
0 -3.53517 -10.9634 1.20109e+06
0 -2.79993 -10.8153 1.1842e+06
0 -2.06469 -10.6673 1.16748e+06
0 -1.32945 -10.5192 1.15062e+06
0 -0.594205 -10.3711 1.13331e+06
0 0.141036 -10.2231 1.11594e+06
0 0.876276 -10.075 1.09577e+06
0 1.61152 -9.92696 1.0758e+06
0 2.34676 -9.7789 1.0574e+06
0 3.082 -9.63084 1.04029e+06
0 3.81724 -9.48278 1.02335e+06
0 4.55248 -9.33472 1.00609e+06
0 5.28772 -9.18666 988674
0 6.02296 -9.0386 972880
0 6.7582 -8.89054 958345
0 7.49344 -8.74249 943893
0 8.22868 -8.59443 929152
0 8.96392 -8.44637 914827
0 9.69916 -8.29831 901966
0 10.4344 -8.15025 890783
0 11.1696 -8.00219 880238
0 11.9049 -7.85413 870596
0 12.6401 -7.70607 865358
0 13.3754 -7.55801 864222
0 14.1106 -7.40996 862456
0 14.8458 -7.2619 851567
0 15.5811 -7.11384 857472
0 16.3163 -6.96578 856139
0 17.0102 -6.40103 851096
0 17.6626 -5.41958 877867
0 18.315 -4.43814 889374
0 18.9674 -3.4567 901738
0 19.6199 -2.47525 916689
0 20.2723 -1.49381 937493
0 20.506 -0.543562 967538
0 20.3209 0.375488 976059
0 20.1358 1.29454 976246
0 19.9507 2.21359 976144
0 19.7657 3.13264 976473
0 19.5806 4.05169 976869
0 19.3955 4.97074 977225
0 19.2104 5.88979 977545
0 19.0254 6.80884 977985
0 18.8403 7.72789 978940
0 18.6552 8.64694 979603
0 18.4701 9.56599 980065
0 18.2851 10.485 980379
0 18.1 11.4041 980515
0 17.9149 12.3231 980632
0 17.7299 13.2422 980703
0 17.1466 14.0279 981126
0 16.1651 14.6804 981510
0 15.1837 15.3328 981851
0 14.2023 15.9852 982693
0 13.2208 16.6376 982884
0 12.2394 17.2901 983091
0 11.2579 17.9425 983452
0 10.2765 18.5949 983960
0 9.29504 19.2473 984474
0 8.3136 19.8998 985000
0 7.33215 20.5522 985051
0 6.35071 21.2046 985918
0 -13.5013 17.6319 992836
0 -13.0112 17.7306 992538
0 -12.521 17.8293 992334
0 -12.0309 17.928 992002
0 -11.5407 18.0268 991378
0 -11.0505 18.1255 991061
0 -10.5604 18.2242 990924
0 -10.0702 18.3229 990758
0 -9.58006 18.4216 990608
0 -9.0899 18.5203 990456
0 -8.59974 18.619 990306
0 -8.10958 18.7177 990178
0 -7.61942 18.8164 990069
0 -7.12926 18.9151 989983
0 -6.6391 19.0138 989922
0 -6.14894 19.1125 989860
0 -5.65878 19.2112 989782
0 -5.16862 19.3099 989684
0 -4.67846 19.4086 989568
0 -4.1883 19.5073 989448
0 -3.69814 19.606 989334
0 -3.20798 19.7048 989224
0 -2.71782 19.8035 989123
0 -2.22766 19.9022 989020
0 -1.7375 20.0009 988865
0 -1.24734 20.0996 988649
0 -0.757175 20.1983 988508
0 -0.267015 20.297 988367
0 0.223145 20.3957 988218
0 0.713306 20.4944 988069
0 1.20347 20.5931 987933
0 1.69363 20.6918 987802
0 2.18379 20.7905 987657
0 2.67395 20.8892 987459
0 3.16411 20.9879 987136
0 3.65427 21.0866 986926
0 4.14443 21.1853 986745
0 4.63459 21.284 986599
0 5.12475 21.3828 986353
0 5.61491 21.4815 985797
0 -21.2493 6.29597 1.00668e+06
0 -20.5969 7.27742 998190
0 -19.9445 8.25886 997756
0 -19.292 9.2403 997293
0 -18.6396 10.2217 996842
0 -17.9872 11.2032 996438
0 -17.3348 12.1846 996056
0 -16.6823 13.1661 995599
0 -16.0299 14.1475 994921
0 -15.3775 15.129 994247
0 -14.7251 16.1104 993665
0 -14.0726 17.0919 992905
0 -18.7069 -8.44003 1.23766e+06
0 -18.8919 -7.52098 1.21389e+06
0 -19.077 -6.60193 1.18652e+06
0 -19.2621 -5.68288 1.15854e+06
0 -19.4472 -4.76383 1.13546e+06
0 -19.6322 -3.84478 1.11609e+06
0 -19.8173 -2.92573 1.10015e+06
0 -20.0024 -2.00668 1.08728e+06
0 -20.1875 -1.08763 1.07667e+06
0 -20.3725 -0.168579 1.06898e+06
0 -20.5576 0.750471 1.06164e+06
0 -20.7427 1.66952 1.0452e+06
0 -20.9278 2.58857 1.03709e+06
0 -21.1128 3.50762 1.03798e+06
0 -21.2979 4.42667 1.05127e+06
0 -21.483 5.34572 1.05306e+06
0 -13.2164 -12.4879 1.37823e+06
0 -14.1978 -11.8355 1.35897e+06
0 -15.1793 -11.183 1.33842e+06
0 -16.1607 -10.5306 1.31948e+06
0 -17.1422 -9.8782 1.29869e+06
0 -18.1236 -9.22577 1.27117e+06
