# p  FACE_DATA 148
#  x  y  z  p
0 -14.0486 -10.8928 1.34661e+06
0 -13.2997 -10.8528 1.31473e+06
0 -12.5508 -10.8128 1.29803e+06
0 -11.8018 -10.7727 1.2836e+06
0 -11.0529 -10.7327 1.25867e+06
0 -10.304 -10.6927 1.23411e+06
0 -9.55504 -10.6527 1.21411e+06
0 -8.8061 -10.6127 1.19173e+06
0 -8.05717 -10.5727 1.16628e+06
0 -7.30824 -10.5326 1.1412e+06
0 -6.55931 -10.4926 1.11981e+06
0 -5.81038 -10.4526 1.101e+06
0 -5.06145 -10.4126 1.08155e+06
0 -4.31251 -10.3726 1.06224e+06
0 -3.56358 -10.3326 1.04649e+06
0 -2.81465 -10.2925 1.03623e+06
0 -2.06572 -10.2525 1.02816e+06
0 -1.31679 -10.2125 1.02275e+06
0 -0.567855 -10.1725 1.01819e+06
0 0.181077 -10.1325 1.01225e+06
0 0.930008 -10.0925 1.00005e+06
0 1.67894 -10.0525 987374
0 2.42787 -10.0124 979546
0 3.1768 -9.97242 969220
0 3.92574 -9.9324 956087
0 4.67467 -9.89239 946034
0 5.4236 -9.85237 938503
0 6.17253 -9.81235 931519
0 6.92146 -9.77234 925789
0 7.67039 -9.73232 921581
0 8.41933 -9.69231 917361
0 9.16826 -9.65229 913328
0 9.91719 -9.61227 914286
0 10.6661 -9.57226 917065
0 11.4151 -9.53224 919951
0 12.164 -9.49223 924563
0 12.9129 -9.45221 931463
0 13.6618 -9.41219 940671
0 14.4108 -9.37218 950768
0 15.1597 -9.33216 963369
0 15.928 -8.87385 959059
0 16.7157 -7.99724 989993
0 17.5034 -7.12063 975083
0 18.2911 -6.24402 964742
0 19.0788 -5.36741 965621
0 19.8664 -4.49081 967938
0 20.2353 -3.58442 975653
0 20.1853 -2.64825 966751
0 20.1352 -1.71209 960776
0 20.0852 -0.775926 959046
0 20.0352 0.160239 959039
0 19.9852 1.0964 960667
0 19.9352 2.03257 957300
0 19.8851 2.96873 954963
0 19.8351 3.9049 953775
0 19.7851 4.84106 951704
0 19.7351 5.77723 956831
0 19.6851 6.71339 977583
0 19.635 7.64956 979469
0 19.585 8.58572 979528
0 19.535 9.52189 979749
0 19.485 10.4581 980178
0 19.0217 11.32 980603
0 18.145 12.1077 980225
0 17.2684 12.8953 979689
0 16.3918 13.683 979372
0 15.5152 14.4707 979226
0 14.6386 15.2584 979146
0 13.762 16.0461 979113
0 12.8854 16.8338 979157
0 12.0088 17.6214 979332
0 11.1322 18.4091 979670
0 10.2556 19.1968 980196
0 9.37896 19.9845 981190
0 -10.7812 19.3246 982589
0 -10.2819 19.3513 982539
0 -9.78264 19.3779 982653
0 -9.28335 19.4046 982242
0 -8.78406 19.4313 981835
0 -8.28477 19.458 981623
0 -7.78548 19.4847 981660
0 -7.2862 19.5113 981745
0 -6.78691 19.538 981542
0 -6.28762 19.5647 981563
0 -5.78833 19.5914 981454
0 -5.28905 19.618 981357
0 -4.78976 19.6447 981298
0 -4.29047 19.6714 981255
0 -3.79118 19.6981 981205
0 -3.29189 19.7247 981176
0 -2.79261 19.7514 981174
0 -2.29332 19.7781 981126
0 -1.79403 19.8048 981069
0 -1.29474 19.8315 981022
0 -0.795455 19.8581 980965
0 -0.296167 19.8848 980892
0 0.203121 19.9115 980797
0 0.702409 19.9382 980695
0 1.2017 19.9648 980594
0 1.70098 19.9915 980490
0 2.20027 20.0182 980379
0 2.69956 20.0449 980317
0 3.19885 20.0716 980278
0 3.69814 20.0982 980240
0 4.19742 20.1249 980253
0 4.69671 20.1516 980314
0 5.196 20.1783 980390
0 5.69529 20.2049 980484
0 6.19457 20.2316 980595
0 6.69386 20.2583 980792
0 7.19315 20.285 981057
0 7.69244 20.3116 981297
0 8.19173 20.3383 981341
0 8.69101 20.365 981097
0 -20.0892 9.23025 989019
0 -19.3015 10.1069 988376
0 -18.5139 10.9835 988018
0 -17.7262 11.8601 987612
0 -16.9385 12.7367 987074
0 -16.1508 13.6133 986327
0 -15.3631 14.4899 985417
0 -14.5754 15.3665 984784
0 -13.7877 16.2431 985090
0 -13.0001 17.1197 985539
0 -12.2124 17.9963 984618
0 -11.4247 18.8729 983047
0 -19.7078 -5.71861 1.25732e+06
0 -19.7578 -4.78244 1.19304e+06
0 -19.8078 -3.84628 1.13594e+06
0 -19.8578 -2.91011 1.08788e+06
0 -19.9078 -1.97395 1.04839e+06
0 -19.9579 -1.03778 1.01517e+06
0 -20.0079 -0.10162 1.00454e+06
0 -20.0579 0.834545 1.0004e+06
0 -20.1079 1.77071 993772
0 -20.1579 2.70687 993923
0 -20.208 3.64304 994918
0 -20.258 4.5792 991201
0 -20.308 5.51537 994201
0 -20.358 6.45153 996000
0 -20.408 7.3877 993750
0 -20.4581 8.32386 997350
0 -14.8614 -10.519 1.34284e+06
0 -15.738 -9.73127 1.305e+06
0 -16.6146 -8.94358 1.28455e+06
0 -17.4912 -8.1559 1.27216e+06
0 -18.3678 -7.36822 1.28123e+06
0 -19.2444 -6.58053 1.31644e+06
