# p  FACE_DATA 148
#  x  y  z  p
0 -16.4042 -6.44366 854358
0 -15.6733 -6.61164 852309
0 -14.9423 -6.77963 851743
0 -14.2114 -6.94762 853611
0 -13.4804 -7.11561 861508
0 -12.7495 -7.2836 874213
0 -12.0185 -7.45158 895641
0 -11.2876 -7.61957 901310
0 -10.5567 -7.78756 899119
0 -9.82571 -7.95555 904139
0 -9.09477 -8.12353 919885
0 -8.36382 -8.29152 938445
0 -7.63288 -8.45951 956619
0 -6.90193 -8.6275 974030
0 -6.17099 -8.79548 991123
0 -5.44004 -8.96347 1.00896e+06
0 -4.7091 -9.13146 1.02737e+06
0 -3.97815 -9.29945 1.04626e+06
0 -3.24721 -9.46743 1.06552e+06
0 -2.51626 -9.63542 1.08511e+06
0 -1.78532 -9.80341 1.10511e+06
0 -1.05437 -9.9714 1.12489e+06
0 -0.323429 -10.1394 1.14447e+06
0 0.407516 -10.3074 1.16425e+06
0 1.13846 -10.4754 1.18322e+06
0 1.8694 -10.6433 1.20161e+06
0 2.60035 -10.8113 1.21798e+06
0 3.33129 -10.9793 1.23172e+06
0 4.06224 -11.1473 1.24922e+06
0 4.79318 -11.3153 1.26609e+06
0 5.52413 -11.4833 1.28203e+06
0 6.25507 -11.6513 1.29778e+06
0 6.98602 -11.8193 1.31308e+06
0 7.71696 -11.9872 1.32734e+06
0 8.44791 -12.1552 1.34031e+06
0 9.17885 -12.3232 1.35139e+06
0 9.9098 -12.4912 1.35997e+06
0 10.6407 -12.6592 1.36608e+06
0 11.3717 -12.8272 1.36379e+06
0 12.1026 -12.9952 1.36829e+06
0 12.9675 -12.7664 1.36684e+06
0 13.9663 -12.1409 1.32659e+06
0 14.9651 -11.5154 1.30691e+06
0 15.964 -10.8899 1.28734e+06
0 16.9628 -10.2644 1.26705e+06
0 17.9616 -9.63888 1.23966e+06
0 18.566 -8.86928 1.19613e+06
0 18.776 -7.9556 1.16069e+06
0 18.9859 -7.04192 1.13143e+06
0 19.1959 -6.12824 1.10957e+06
0 19.4059 -5.21456 1.09415e+06
0 19.6159 -4.30088 1.08509e+06
0 19.8259 -3.3872 1.08009e+06
0 20.0359 -2.47352 1.0785e+06
0 20.2459 -1.55984 1.07919e+06
0 20.4558 -0.646154 1.07842e+06
0 20.6658 0.267526 1.07702e+06
0 20.8758 1.18121 1.07092e+06
0 21.0858 2.09489 1.05989e+06
0 21.2958 3.00857 1.04614e+06
0 21.5058 3.92225 1.02208e+06
0 21.7157 4.83593 1.00238e+06
0 21.508 5.79218 997787
0 20.8825 6.79099 997520
0 20.257 7.78981 997162
0 19.6315 8.78862 996914
0 19.006 9.78743 996636
0 18.3804 10.7862 996235
0 17.7549 11.7851 995877
0 17.1294 12.7839 995298
0 16.5039 13.7827 993944
0 15.8784 14.7815 992684
0 15.2529 15.7803 992399
0 14.6274 16.7791 992126
0 -4.93357 21.7022 990522
0 -4.44627 21.5902 990761
0 -3.95897 21.4782 990906
0 -3.47168 21.3662 991067
0 -2.98438 21.2542 991234
0 -2.49708 21.1423 991398
0 -2.00979 21.0303 991553
0 -1.52249 20.9183 991697
0 -1.03519 20.8063 991853
0 -0.547897 20.6943 991966
0 -0.0606007 20.5823 992045
0 0.426696 20.4703 992100
0 0.913992 20.3583 992135
0 1.40129 20.2463 992160
0 1.88859 20.1343 992181
0 2.37588 20.0223 992199
0 2.86318 19.9103 992207
0 3.35047 19.7984 992201
0 3.83777 19.6864 992182
0 4.32507 19.5744 992139
0 4.81236 19.4624 992082
0 5.29966 19.3504 992031
0 5.78696 19.2384 991991
0 6.27425 19.1264 991948
0 6.76155 19.0144 991868
0 7.24885 18.9024 991670
0 7.73614 18.7904 991545
0 8.22344 18.6784 991507
0 8.71074 18.5664 991482
0 9.19803 18.4544 991443
0 9.68533 18.3425 991190
0 10.1726 18.2305 988670
0 10.6599 18.1185 988288
0 11.1472 18.0065 990917
0 11.6345 17.8945 990719
0 12.1218 17.7825 991022
0 12.6091 17.6705 991337
0 13.0964 17.5585 991462
0 13.5837 17.4465 991656
0 14.071 17.3345 991991
0 -16.6636 14.5649 987046
0 -15.6648 15.1904 987494
0 -14.6659 15.8159 987918
0 -13.6671 16.4414 988319
0 -12.6683 17.0669 988581
0 -11.6695 17.6924 988695
0 -10.6707 18.3179 988701
0 -9.67188 18.9434 988767
0 -8.67306 19.5689 988969
0 -7.67425 20.1944 989336
0 -6.67543 20.8199 989859
0 -5.67662 21.4455 990554
0 -20.4177 0.0900599 942970
0 -20.2078 1.00374 963025
0 -19.9978 1.91742 973258
0 -19.7878 2.8311 980764
0 -19.5778 3.74478 989661
0 -19.3678 4.65846 995720
0 -19.1578 5.57215 993042
0 -18.9478 6.48583 993437
0 -18.7379 7.39951 990267
0 -18.5279 8.31319 989410
0 -18.3179 9.22687 988825
0 -18.1079 10.1405 986410
0 -17.8979 11.0542 986086
0 -17.6879 11.9679 986816
0 -17.478 12.8816 986763
0 -17.268 13.7953 986667
0 -17.0824 -5.86026 853940
0 -17.7079 -4.86144 859444
0 -18.3335 -3.86263 875641
0 -18.959 -2.86381 886336
0 -19.5845 -1.865 896385
0 -20.21 -0.866187 912110
