# p  FACE_DATA 148
#  x  y  z  p
0 -16.3064 -6.78923 921079
0 -15.5714 -6.93853 915357
0 -14.8364 -7.08782 916770
0 -14.1014 -7.23712 919173
0 -13.3664 -7.38641 925153
0 -12.6314 -7.53571 934271
0 -11.8964 -7.68501 946014
0 -11.1615 -7.8343 949337
0 -10.4265 -7.9836 953828
0 -9.69148 -8.13289 961607
0 -8.95649 -8.28219 971742
0 -8.2215 -8.43149 984633
0 -7.48651 -8.58078 998683
0 -6.75152 -8.73008 1.01396e+06
0 -6.01653 -8.87937 1.03048e+06
0 -5.28154 -9.02867 1.0478e+06
0 -4.54655 -9.17797 1.06569e+06
0 -3.81156 -9.32726 1.0839e+06
0 -3.07657 -9.47656 1.10244e+06
0 -2.34158 -9.62585 1.12191e+06
0 -1.60659 -9.77515 1.1432e+06
0 -0.871595 -9.92445 1.16676e+06
0 -0.136605 -10.0737 1.19256e+06
0 0.598385 -10.223 1.21621e+06
0 1.33338 -10.3723 1.22602e+06
0 2.06837 -10.5216 1.23096e+06
0 2.80336 -10.6709 1.23753e+06
0 3.53835 -10.8202 1.24763e+06
0 4.27334 -10.9695 1.26061e+06
0 5.00833 -11.1188 1.27531e+06
0 5.74332 -11.2681 1.29013e+06
0 6.47831 -11.4174 1.30467e+06
0 7.2133 -11.5667 1.31867e+06
0 7.94829 -11.716 1.33207e+06
0 8.68328 -11.8653 1.34365e+06
0 9.41827 -12.0146 1.34716e+06
0 10.1533 -12.1639 1.34988e+06
0 10.8882 -12.3132 1.35483e+06
0 11.6232 -12.4625 1.35625e+06
0 12.3582 -12.6118 1.37705e+06
0 13.217 -12.361 1.37454e+06
0 14.1995 -11.7103 1.31364e+06
0 15.1821 -11.0595 1.28913e+06
0 16.1646 -10.4087 1.25792e+06
0 17.1472 -9.75795 1.23523e+06
0 18.1297 -9.10718 1.22253e+06
0 18.7143 -8.32242 1.16403e+06
0 18.9009 -7.40369 1.12556e+06
0 19.0875 -6.48495 1.08881e+06
0 19.2741 -5.56621 1.05601e+06
0 19.4608 -4.64747 1.03136e+06
0 19.6474 -3.72874 1.02116e+06
0 19.834 -2.81 1.0213e+06
0 20.0206 -1.89126 1.01845e+06
0 20.2072 -0.972522 1.02235e+06
0 20.3939 -0.0537843 1.03334e+06
0 20.5805 0.864954 1.02919e+06
0 20.7671 1.78369 1.0124e+06
0 20.9537 2.70243 1.00739e+06
0 21.1403 3.62117 1.00689e+06
0 21.327 4.5399 1.00654e+06
0 21.5136 5.45864 1.00546e+06
0 21.2815 6.40928 1.00369e+06
0 20.6307 7.39182 1.00238e+06
0 19.98 8.37436 1.00197e+06
0 19.3292 9.3569 1.00159e+06
0 18.6784 10.3394 1.00078e+06
0 18.0276 11.322 1.00023e+06
0 17.3769 12.3045 999760
0 16.7261 13.2871 999279
0 16.0753 14.2696 998784
0 15.4246 15.2521 998306
0 14.7738 16.2347 997979
0 14.123 17.2172 997233
0 -5.55711 21.64 988636
0 -5.06712 21.5404 988959
0 -4.57713 21.4409 989222
0 -4.08713 21.3414 989404
0 -3.59714 21.2418 989539
0 -3.10715 21.1423 989667
0 -2.61715 21.0428 989790
0 -2.12716 20.9432 989911
0 -1.63717 20.8437 990063
0 -1.14717 20.7442 990276
0 -0.657179 20.6446 990571
0 -0.167186 20.5451 990942
0 0.322808 20.4456 991349
0 0.812801 20.3461 991761
0 1.30279 20.2465 992177
0 1.79279 20.147 992581
0 2.28278 20.0475 992951
0 2.77278 19.9479 993279
0 3.26277 19.8484 993565
0 3.75276 19.7489 993823
0 4.24276 19.6493 994055
0 4.73275 19.5498 994255
0 5.22274 19.4503 994428
0 5.71274 19.3508 994570
0 6.20273 19.2512 994691
0 6.69272 19.1517 994795
0 7.18272 19.0522 994893
0 7.67271 18.9526 995001
0 8.1627 18.8531 995124
0 8.6527 18.7536 995263
0 9.14269 18.654 995427
0 9.63268 18.5545 995612
0 10.1227 18.455 995806
0 10.6127 18.3554 995995
0 11.1027 18.2559 996178
0 11.5927 18.1564 996366
0 12.0827 18.0569 996538
0 12.5726 17.9573 996733
0 13.0626 17.8578 996912
0 13.5526 17.7583 997172
0 -17.1013 14.2059 985400
0 -16.1188 14.8566 985456
0 -15.1362 15.5074 985486
0 -14.1537 16.1582 985411
0 -13.1712 16.8089 985435
0 -12.1886 17.4597 985729
0 -11.2061 18.1105 986514
0 -10.2235 18.7613 986922
0 -9.241 19.412 987267
0 -8.25846 20.0628 987623
0 -7.27592 20.7136 987945
0 -6.29338 21.3643 988678
0 -20.4852 -0.359972 1.01061e+06
0 -20.2986 0.558766 996464
0 -20.112 1.4775 983880
0 -19.9253 2.39624 980252
0 -19.7387 3.31498 982245
0 -19.5521 4.23372 982590
0 -19.3655 5.15246 982410
0 -19.1789 6.07119 981428
0 -18.9922 6.98993 977151
0 -18.8056 7.90867 981445
0 -18.619 8.82741 983471
0 -18.4324 9.74614 983537
0 -18.2458 10.6649 983512
0 -18.0591 11.5836 983516
0 -17.8725 12.5024 982917
0 -17.6859 13.4211 985078
0 -16.9993 -6.22331 916941
0 -17.65 -5.24077 941669
0 -18.3008 -4.25823 941175
0 -18.9516 -3.27569 943840
0 -19.6024 -2.29315 949021
0 -20.2531 -1.31061 958483
