# p  FACE_DATA 148
#  x  y  z  p
0 -15.2716 -8.78441 992305
0 -14.5235 -8.83813 988340
0 -13.7754 -8.89186 984318
0 -13.0274 -8.94558 980614
0 -12.2793 -8.9993 977727
0 -11.5312 -9.05302 973381
0 -10.7832 -9.10674 967981
0 -10.0351 -9.16047 965670
0 -9.28701 -9.21419 965131
0 -8.53893 -9.26791 965402
0 -7.79086 -9.32163 968217
0 -7.04279 -9.37535 973412
0 -6.29471 -9.42908 980164
0 -5.54664 -9.4828 987951
0 -4.79857 -9.53652 996206
0 -4.05049 -9.59024 1.00455e+06
0 -3.30242 -9.64396 1.01304e+06
0 -2.55435 -9.69769 1.02191e+06
0 -1.80627 -9.75141 1.03131e+06
0 -1.0582 -9.80513 1.04121e+06
0 -0.310125 -9.85885 1.05275e+06
0 0.437949 -9.91257 1.06496e+06
0 1.18602 -9.9663 1.07247e+06
0 1.9341 -10.02 1.07574e+06
0 2.68217 -10.0737 1.08104e+06
0 3.43024 -10.1275 1.09137e+06
0 4.17832 -10.1812 1.10467e+06
0 4.92639 -10.2349 1.11905e+06
0 5.67446 -10.2886 1.13236e+06
0 6.42254 -10.3423 1.1424e+06
0 7.17061 -10.3961 1.15261e+06
0 7.91868 -10.4498 1.16712e+06
0 8.66676 -10.5035 1.18209e+06
0 9.41483 -10.5572 1.19951e+06
0 10.1629 -10.611 1.21734e+06
0 10.911 -10.6647 1.23428e+06
0 11.6591 -10.7184 1.25076e+06
0 12.4071 -10.7721 1.26517e+06
0 13.1552 -10.8258 1.27385e+06
0 13.9033 -10.8796 1.28292e+06
0 14.7228 -10.5207 1.28015e+06
0 15.6136 -9.74918 1.26389e+06
0 16.5045 -8.97768 1.25479e+06
0 17.3954 -8.20617 1.23154e+06
0 18.2863 -7.43467 1.19491e+06
0 19.1772 -6.66317 1.15835e+06
0 19.6562 -5.80987 1.12685e+06
0 19.7233 -4.87478 1.06987e+06
0 19.7905 -3.93969 1.07299e+06
0 19.8576 -3.0046 1.07287e+06
0 19.9248 -2.06951 1.05539e+06
0 19.9919 -1.13441 1.04213e+06
0 20.0591 -0.199322 1.04238e+06
0 20.1263 0.735769 1.0394e+06
0 20.1934 1.67086 1.03788e+06
0 20.2606 2.60595 1.03334e+06
0 20.3277 3.54104 1.02566e+06
0 20.3949 4.47614 1.02267e+06
0 20.462 5.41123 1.0362e+06
0 20.5292 6.34632 1.07136e+06
0 20.5963 7.28141 1.11819e+06
0 20.6635 8.2165 1.07389e+06
0 20.3113 9.12949 1.0087e+06
0 19.5398 10.0204 995289
0 18.7683 10.9113 996004
0 17.9968 11.8021 997015
0 17.2253 12.693 996963
0 16.4538 13.5839 996834
0 15.6823 14.4748 996980
0 14.9108 15.3657 997170
0 14.1393 16.2566 997372
0 13.3678 17.1474 997574
0 12.5963 18.0383 997621
0 11.8248 18.9292 997291
0 -8.26024 20.7893 990714
0 -7.76152 20.7535 990732
0 -7.26281 20.7177 990740
0 -6.76409 20.6819 990657
0 -6.26538 20.6461 990539
0 -5.76666 20.6103 990657
0 -5.26795 20.5744 990768
0 -4.76923 20.5386 990932
0 -4.27051 20.5028 991138
0 -3.7718 20.467 991354
0 -3.27308 20.4312 991555
0 -2.77437 20.3954 991730
0 -2.27565 20.3596 991881
0 -1.77694 20.3237 992026
0 -1.27822 20.2879 992198
0 -0.779504 20.2521 992451
0 -0.280788 20.2163 992622
0 0.217927 20.1805 992756
0 0.716643 20.1447 992929
0 1.21536 20.1089 993155
0 1.71407 20.073 993424
0 2.21279 20.0372 993715
0 2.71151 20.0014 993969
0 3.21022 19.9656 994140
0 3.70894 19.9298 994298
0 4.20765 19.894 994471
0 4.70637 19.8582 994688
0 5.20508 19.8223 994931
0 5.7038 19.7865 995182
0 6.20252 19.7507 995423
0 6.70123 19.7149 995616
0 7.19995 19.6791 995759
0 7.69866 19.6433 995896
0 8.19738 19.6075 996040
0 8.69609 19.5716 996169
0 9.19481 19.5358 996183
0 9.69352 19.5 996659
0 10.1922 19.4642 996978
0 10.691 19.4284 997105
0 11.1897 19.3926 997238
0 -18.7548 11.935 988247
0 -17.8639 12.7065 988601
0 -16.973 13.478 988954
0 -16.0821 14.2495 989244
0 -15.1912 15.021 989493
0 -14.3003 15.7925 989730
0 -13.4095 16.564 989924
0 -12.5186 17.3355 990024
0 -11.6277 18.107 989976
0 -10.7368 18.8785 989903
0 -9.84592 19.65 990108
0 -8.95504 20.4215 990762
0 -20.2411 -2.9447 999769
0 -20.1739 -2.00961 997973
0 -20.1068 -1.07452 995126
0 -20.0396 -0.139427 991853
0 -19.9725 0.795665 989410
0 -19.9053 1.73076 988358
0 -19.8382 2.66585 987972
0 -19.771 3.60094 987591
0 -19.7038 4.53603 987301
0 -19.6367 5.47112 987103
0 -19.5695 6.40622 986969
0 -19.5024 7.34131 986942
0 -19.4352 8.2764 987048
0 -19.3681 9.21149 987287
0 -19.3009 10.1466 987602
0 -19.2338 11.0817 987945
0 -16.0314 -8.31211 991261
0 -16.8029 -7.42123 997915
0 -17.5744 -6.53034 1.00409e+06
0 -18.3459 -5.63946 1.00079e+06
0 -19.1174 -4.74857 998647
0 -19.8889 -3.85769 999865
