# p  FACE_DATA 148
#  x  y  z  p
0 -15.3716 -8.73749 1.04431e+06
0 -14.6243 -8.80171 1.04281e+06
0 -13.8771 -8.86593 1.04059e+06
0 -13.1298 -8.93016 1.03391e+06
0 -12.3826 -8.99438 1.02546e+06
0 -11.6354 -9.0586 1.01699e+06
0 -10.8881 -9.12282 1.0116e+06
0 -10.1409 -9.18704 1.01101e+06
0 -9.39362 -9.25126 1.01133e+06
0 -8.64638 -9.31548 1.01373e+06
0 -7.89913 -9.3797 1.01672e+06
0 -7.15188 -9.44393 1.01806e+06
0 -6.40464 -9.50815 1.01769e+06
0 -5.65739 -9.57237 1.01662e+06
0 -4.91015 -9.63659 1.01557e+06
0 -4.1629 -9.70081 1.01408e+06
0 -3.41566 -9.76503 1.01169e+06
0 -2.66841 -9.82925 1.01027e+06
0 -1.92117 -9.89347 1.0114e+06
0 -1.17392 -9.9577 1.01324e+06
0 -0.426676 -10.0219 1.01695e+06
0 0.320569 -10.0861 1.02252e+06
0 1.06781 -10.1504 1.02552e+06
0 1.81506 -10.2146 1.03007e+06
0 2.56231 -10.2788 1.03513e+06
0 3.30955 -10.343 1.03761e+06
0 4.0568 -10.4072 1.04162e+06
0 4.80404 -10.4715 1.04647e+06
0 5.55129 -10.5357 1.05154e+06
0 6.29853 -10.5999 1.05808e+06
0 7.04578 -10.6641 1.06585e+06
0 7.79302 -10.7283 1.07389e+06
0 8.54027 -10.7926 1.0818e+06
0 9.28751 -10.8568 1.09047e+06
0 10.0348 -10.921 1.10089e+06
0 10.782 -10.9852 1.11164e+06
0 11.5292 -11.0495 1.12271e+06
0 12.2765 -11.1137 1.13278e+06
0 13.0237 -11.1779 1.13942e+06
0 13.771 -11.2421 1.15262e+06
0 14.5954 -10.8948 1.15066e+06
0 15.4971 -10.1359 1.14496e+06
0 16.3987 -9.37694 1.13528e+06
0 17.3003 -8.61802 1.12364e+06
0 18.2019 -7.85911 1.11858e+06
0 19.1036 -7.10019 1.11726e+06
0 19.5945 -6.25371 1.12145e+06
0 19.6748 -5.31965 1.09612e+06
0 19.7551 -4.38559 1.06114e+06
0 19.8354 -3.45154 1.03377e+06
0 19.9156 -2.51748 1.01725e+06
0 19.9959 -1.58342 1.0039e+06
0 20.0762 -0.649367 996526
0 20.1565 0.28469 995143
0 20.2367 1.21875 1.00607e+06
0 20.317 2.1528 1.01522e+06
0 20.3973 3.08686 1.01611e+06
0 20.4776 4.02092 1.00868e+06
0 20.5578 4.95497 997938
0 20.6381 5.88903 994773
0 20.7184 6.82309 995324
0 20.7987 7.75714 994995
0 20.4594 8.67499 994198
0 19.7004 9.57662 994188
0 18.9415 10.4782 993647
0 18.1826 11.3799 992882
0 17.4237 12.2815 991811
0 16.6648 13.1831 990988
0 15.9059 14.0848 990318
0 15.1469 14.9864 990079
0 14.388 15.888 991000
0 13.6291 16.7897 991930
0 12.8702 17.6913 995966
0 12.1113 18.5929 994778
0 -7.94564 20.7349 996188
0 -7.44748 20.6921 996194
0 -6.94931 20.6493 996143
0 -6.45115 20.6064 996031
0 -5.95299 20.5636 995847
0 -5.45482 20.5208 995589
0 -4.95666 20.478 995344
0 -4.4585 20.4352 995157
0 -3.96033 20.3924 995136
0 -3.46217 20.3496 995068
0 -2.964 20.3067 994990
0 -2.46584 20.2639 994952
0 -1.96768 20.2211 994911
0 -1.46951 20.1783 994884
0 -0.971351 20.1355 994885
0 -0.473187 20.0927 994855
0 0.0249766 20.0499 994783
0 0.52314 20.007 994696
0 1.0213 19.9642 994581
0 1.51947 19.9214 994430
0 2.01763 19.8786 994258
0 2.51579 19.8358 994080
0 3.01396 19.793 993882
0 3.51212 19.7502 993664
0 4.01029 19.7073 993435
0 4.50845 19.6645 993218
0 5.00661 19.6217 993050
0 5.50478 19.5789 992904
0 6.00294 19.5361 992709
0 6.5011 19.4933 992526
0 6.99927 19.4505 992562
0 7.49743 19.4076 992589
0 7.99559 19.3648 992383
0 8.49376 19.322 992135
0 8.99192 19.2792 992134
0 9.49008 19.2364 991612
0 9.98825 19.1936 993504
0 10.4864 19.1508 995440
0 10.9846 19.1079 994663
0 11.4827 19.0651 994724
0 -18.5635 12.0288 993586
0 -17.6618 12.7877 994340
0 -16.7602 13.5466 994947
0 -15.8586 14.3055 995195
0 -14.9569 15.0644 995317
0 -14.0553 15.8233 995337
0 -13.1537 16.5823 995146
0 -12.2521 17.3412 994846
0 -11.3504 18.1001 994972
0 -10.4488 18.859 995428
0 -9.54717 19.6179 996006
0 -8.64554 20.3768 996232
0 -20.2586 -2.82858 1.04978e+06
0 -20.1783 -1.89452 1.0419e+06
0 -20.098 -0.960463 1.04153e+06
0 -20.0177 -0.0264059 1.04706e+06
0 -19.9375 0.907651 1.04751e+06
0 -19.8572 1.84171 1.03516e+06
0 -19.7769 2.77576 1.02411e+06
0 -19.6966 3.70982 1.03379e+06
0 -19.6164 4.64388 1.02728e+06
0 -19.5361 5.57793 1.00046e+06
0 -19.4558 6.51199 993067
0 -19.3755 7.44605 994977
0 -19.2952 8.3801 1.00402e+06
0 -19.215 9.31416 1.00692e+06
0 -19.1347 10.2482 1.00092e+06
0 -19.0544 11.1823 995225
0 -16.1247 -8.25457 1.0437e+06
0 -16.8836 -7.35294 1.04389e+06
0 -17.6425 -6.45131 1.0447e+06
0 -18.4014 -5.54968 1.0468e+06
0 -19.1603 -4.64805 1.05029e+06
0 -19.9192 -3.74642 1.053e+06
