# p  FACE_DATA 148
#  x  y  z  p
0 -15.7171 -8.06847 974492
0 -14.9733 -8.16417 954555
0 -14.2294 -8.25987 942901
0 -13.4855 -8.35557 939486
0 -12.7417 -8.45127 936679
0 -11.9978 -8.54697 930709
0 -11.2539 -8.64267 925784
0 -10.5101 -8.73837 923804
0 -9.76619 -8.83407 922518
0 -9.02232 -8.92977 921795
0 -8.27845 -9.02547 929480
0 -7.53458 -9.12117 939859
0 -6.79071 -9.21687 945853
0 -6.04684 -9.31257 949105
0 -5.30297 -9.40827 951397
0 -4.5591 -9.50397 952901
0 -3.81523 -9.59967 955184
0 -3.07137 -9.69537 960594
0 -2.3275 -9.79107 968893
0 -1.58363 -9.88677 978296
0 -0.839758 -9.98247 989914
0 -0.0958882 -10.0782 1.00428e+06
0 0.647981 -10.1739 1.02234e+06
0 1.39185 -10.2696 1.04184e+06
0 2.13572 -10.3653 1.0629e+06
0 2.87959 -10.461 1.07656e+06
0 3.62346 -10.5567 1.08615e+06
0 4.36733 -10.6524 1.0979e+06
0 5.1112 -10.7481 1.114e+06
0 5.85507 -10.8438 1.13113e+06
0 6.59894 -10.9395 1.14839e+06
0 7.3428 -11.0352 1.16686e+06
0 8.08667 -11.1309 1.18579e+06
0 8.83054 -11.2266 1.20475e+06
0 9.57441 -11.3223 1.21613e+06
0 10.3183 -11.418 1.23052e+06
0 11.0622 -11.5137 1.24556e+06
0 11.806 -11.6094 1.26127e+06
0 12.5499 -11.7051 1.27646e+06
0 13.2938 -11.8008 1.29647e+06
0 14.1321 -11.4885 1.2937e+06
0 15.065 -10.7683 1.27717e+06
0 15.9978 -10.0481 1.2546e+06
0 16.9307 -9.32796 1.23542e+06
0 17.8635 -8.60777 1.22264e+06
0 18.7964 -7.88758 1.208e+06
0 19.3226 -7.06257 1.18719e+06
0 19.4423 -6.13273 1.14839e+06
0 19.5619 -5.20289 1.10432e+06
0 19.6815 -4.27306 1.06112e+06
0 19.8011 -3.34322 1.02324e+06
0 19.9208 -2.41338 1.01751e+06
0 20.0404 -1.48355 1.01677e+06
0 20.16 -0.55371 1.01554e+06
0 20.2796 0.376126 1.00995e+06
0 20.3993 1.30596 1.00435e+06
0 20.5189 2.2358 1.00266e+06
0 20.6385 3.16564 1.00087e+06
0 20.7581 4.09547 991477
0 20.8778 5.02531 990080
0 20.9974 5.95515 986312
0 21.117 6.88498 986972
0 20.8167 7.81633 988661
0 20.0965 8.74918 986994
0 19.3763 9.68204 986317
0 18.6562 10.6149 986097
0 17.936 11.5477 985989
0 17.2158 12.4806 985820
0 16.4956 13.4135 985587
0 15.7754 14.3463 985382
0 15.0552 15.2792 985175
0 14.335 16.212 984961
0 13.6148 17.1449 984723
0 12.8946 18.0777 984420
0 -7.054 21.0642 982607
0 -6.55809 21.0004 982667
0 -6.06218 20.9366 982680
0 -5.56626 20.8728 982698
0 -5.07035 20.809 982723
0 -4.57444 20.7453 982733
0 -4.07853 20.6815 982774
0 -3.58261 20.6177 982782
0 -3.0867 20.5539 982789
0 -2.59079 20.4901 982798
0 -2.09487 20.4263 982803
0 -1.59896 20.3625 982806
0 -1.10305 20.2987 982809
0 -0.607135 20.2349 982803
0 -0.111223 20.1711 982829
0 0.38469 20.1073 982844
0 0.880603 20.0435 982847
0 1.37652 19.9797 982858
0 1.87243 19.9159 982865
0 2.36834 19.8521 982867
0 2.86425 19.7883 982867
0 3.36017 19.7245 982864
0 3.85608 19.6607 982843
0 4.35199 19.5969 982804
0 4.84791 19.5331 982770
0 5.34382 19.4693 982762
0 5.83973 19.4055 982732
0 6.33564 19.3417 982564
0 6.83156 19.2779 982438
0 7.32747 19.2141 983025
0 7.82338 19.1503 983178
0 8.3193 19.0865 983248
0 8.81521 19.0227 983348
0 9.31112 18.9589 983467
0 9.80703 18.8951 983582
0 10.3029 18.8313 983720
0 10.7989 18.7675 983911
0 11.2948 18.7037 984077
0 11.7907 18.6399 984209
0 12.2866 18.5761 984357
0 -18.0298 12.814 982322
0 -17.0969 13.5342 982210
0 -16.1641 14.2544 982076
0 -15.2312 14.9745 982139
0 -14.2984 15.6947 982099
0 -13.3655 16.4149 981724
0 -12.4327 17.1351 980894
0 -11.4998 17.8553 981236
0 -10.567 18.5755 981609
0 -9.6341 19.2957 981924
0 -8.70124 20.0159 982381
0 -7.76839 20.7361 982680
0 -20.3504 -1.95858 1.03655e+06
0 -20.2308 -1.02874 1.04181e+06
0 -20.1111 -0.0989063 1.05358e+06
0 -19.9915 0.83093 1.03973e+06
0 -19.8719 1.76077 1.01188e+06
0 -19.7523 2.6906 991247
0 -19.6326 3.62044 980168
0 -19.513 4.55028 978992
0 -19.3934 5.48011 980976
0 -19.2738 6.40995 981451
0 -19.1541 7.33979 980982
0 -19.0345 8.26962 981575
0 -18.9149 9.19946 981552
0 -18.7953 10.1293 981564
0 -18.6757 11.0591 981830
0 -18.556 11.989 982153
0 -16.4492 -7.5542 969305
0 -17.1694 -6.62134 964387
0 -17.8895 -5.68849 965746
0 -18.6097 -4.75563 975677
0 -19.3299 -3.82278 1.00119e+06
0 -20.0501 -2.88993 1.02811e+06
