# p  FACE_DATA 148
#  x  y  z  p
0 -14.6515 -9.96391 1.08991e+06
0 -13.9015 -9.96575 1.08112e+06
0 -13.1515 -9.9676 1.07284e+06
0 -12.4015 -9.96944 1.06453e+06
0 -11.6515 -9.97128 1.05693e+06
0 -10.9015 -9.97313 1.05045e+06
0 -10.1515 -9.97497 1.04478e+06
0 -9.40154 -9.97682 1.03992e+06
0 -8.65154 -9.97866 1.03573e+06
0 -7.90154 -9.9805 1.03232e+06
0 -7.15155 -9.98235 1.0296e+06
0 -6.40155 -9.98419 1.02749e+06
0 -5.65155 -9.98604 1.02596e+06
0 -4.90155 -9.98788 1.02499e+06
0 -4.15156 -9.98972 1.02457e+06
0 -3.40156 -9.99157 1.02466e+06
0 -2.65156 -9.99341 1.02505e+06
0 -1.90156 -9.99526 1.02539e+06
0 -1.15156 -9.9971 1.02573e+06
0 -0.401567 -9.99894 1.02677e+06
0 0.348431 -10.0008 1.02876e+06
0 1.09843 -10.0026 1.03125e+06
0 1.84843 -10.0045 1.03423e+06
0 2.59842 -10.0063 1.03732e+06
0 3.34842 -10.0082 1.04023e+06
0 4.09842 -10.01 1.04305e+06
0 4.84842 -10.0119 1.04592e+06
0 5.59842 -10.0137 1.04888e+06
0 6.34841 -10.0155 1.05217e+06
0 7.09841 -10.0174 1.05619e+06
0 7.84841 -10.0192 1.06126e+06
0 8.59841 -10.0211 1.06709e+06
0 9.3484 -10.0229 1.0729e+06
0 10.0984 -10.0248 1.07947e+06
0 10.8484 -10.0266 1.08862e+06
0 11.5984 -10.0284 1.09965e+06
0 12.3484 -10.0303 1.1097e+06
0 13.0984 -10.0321 1.11736e+06
0 13.8484 -10.034 1.12446e+06
0 14.5984 -10.0358 1.14035e+06
0 15.3911 -9.62111 1.13616e+06
0 16.2265 -8.78983 1.12006e+06
0 17.0618 -7.95854 1.10879e+06
0 17.8972 -7.12726 1.10232e+06
0 18.7326 -6.29598 1.10462e+06
0 19.568 -5.4647 1.11066e+06
0 19.9868 -4.58031 1.08785e+06
0 19.9891 -3.64281 1.06748e+06
0 19.9914 -2.70531 1.04858e+06
0 19.9937 -1.76782 1.03047e+06
0 19.996 -0.83032 1.0144e+06
0 19.9983 0.107177 1.00601e+06
0 20.0006 1.04467 1.00509e+06
0 20.003 1.98217 1.00494e+06
0 20.0053 2.91967 1.00479e+06
0 20.0076 3.85717 1.00467e+06
0 20.0099 4.79466 1.00456e+06
0 20.0122 5.73216 1.00447e+06
0 20.0145 6.66966 1.00443e+06
0 20.0168 7.60715 1.00445e+06
0 20.0191 8.54465 1.00445e+06
0 20.0214 9.48215 1.00432e+06
0 19.6069 10.3686 1.00408e+06
0 18.7756 11.204 1.0039e+06
0 17.9443 12.0393 1.00371e+06
0 17.1131 12.8747 1.00352e+06
0 16.2818 13.7101 1.00335e+06
0 15.4505 14.5455 1.0032e+06
0 14.6192 15.3809 1.00307e+06
0 13.7879 16.2162 1.003e+06
0 12.9567 17.0516 1.00294e+06
0 12.1254 17.887 1.00301e+06
0 11.2941 18.7224 1.00318e+06
0 10.4628 19.5578 1.003e+06
0 -9.70278 20.024 1.00287e+06
0 -9.20278 20.0228 1.00293e+06
0 -8.70278 20.0216 1.0029e+06
0 -8.20278 20.0203 1.00281e+06
0 -7.70278 20.0191 1.00272e+06
0 -7.20278 20.0179 1.00263e+06
0 -6.70278 20.0166 1.00254e+06
0 -6.20279 20.0154 1.00247e+06
0 -5.70279 20.0142 1.00239e+06
0 -5.20279 20.013 1.00233e+06
0 -4.70279 20.0117 1.00227e+06
0 -4.20279 20.0105 1.00223e+06
0 -3.70279 20.0093 1.00219e+06
0 -3.2028 20.008 1.00215e+06
0 -2.7028 20.0068 1.00213e+06
0 -2.2028 20.0056 1.0021e+06
0 -1.7028 20.0043 1.00208e+06
0 -1.2028 20.0031 1.00206e+06
0 -0.702803 20.0019 1.00205e+06
0 -0.202804 20.0007 1.00204e+06
0 0.297194 19.9994 1.00203e+06
0 0.797193 19.9982 1.00204e+06
0 1.29719 19.997 1.00205e+06
0 1.79719 19.9957 1.00207e+06
0 2.29719 19.9945 1.00208e+06
0 2.79719 19.9933 1.00211e+06
0 3.29719 19.9921 1.00214e+06
0 3.79718 19.9908 1.00217e+06
0 4.29718 19.9896 1.00221e+06
0 4.79718 19.9884 1.00225e+06
0 5.29718 19.9871 1.0023e+06
0 5.79718 19.9859 1.00236e+06
0 6.29718 19.9847 1.00242e+06
0 6.79717 19.9834 1.00249e+06
0 7.29717 19.9822 1.00256e+06
0 7.79717 19.981 1.00264e+06
0 8.29717 19.9798 1.00272e+06
0 8.79717 19.9785 1.0028e+06
0 9.29717 19.9773 1.00287e+06
0 9.79717 19.9761 1.00295e+06
0 -19.5596 10.4649 1.004e+06
0 -18.7243 11.2962 1.00367e+06
0 -17.8889 12.1275 1.00334e+06
0 -17.0535 12.9587 1.00313e+06
0 -16.2181 13.79 1.00299e+06
0 -15.3827 14.6213 1.00288e+06
0 -14.5474 15.4526 1.00279e+06
0 -13.712 16.2839 1.00273e+06
0 -12.8766 17.1151 1.00271e+06
0 -12.0412 17.9464 1.00273e+06
0 -11.2058 18.7777 1.00277e+06
0 -10.3705 19.609 1.00292e+06
0 -20.0131 -4.48196 1.06862e+06
0 -20.0108 -3.54446 1.05787e+06
0 -20.0085 -2.60696 1.03804e+06
0 -20.0061 -1.66947 1.0192e+06
0 -20.0038 -0.731969 1.00785e+06
0 -20.0015 0.205528 1.00475e+06
0 -19.9992 1.14303 1.00446e+06
0 -19.9969 2.08052 1.00426e+06
0 -19.9946 3.01802 1.00411e+06
0 -19.9923 3.95552 1.004e+06
0 -19.99 4.89301 1.0039e+06
0 -19.9877 5.83051 1.00384e+06
0 -19.9854 6.76801 1.00379e+06
0 -19.9831 7.70551 1.00378e+06
0 -19.9808 8.643 1.00381e+06
0 -19.9785 9.5805 1.00388e+06
0 -15.4422 -9.5453 1.08569e+06
0 -16.2734 -8.70992 1.09853e+06
0 -17.1047 -7.87454 1.08446e+06
0 -17.936 -7.03916 1.07365e+06
0 -18.7673 -6.20378 1.07021e+06
0 -19.5986 -5.3684 1.0682e+06
