# p  FACE_DATA 148
#  x  y  z  p
0 -12.0922 -12.9328 1.33372e+06
0 -11.3602 -12.7693 1.32905e+06
0 -10.6283 -12.6058 1.33256e+06
0 -9.8963 -12.4423 1.3265e+06
0 -9.16434 -12.2789 1.30981e+06
0 -8.43237 -12.1154 1.29303e+06
0 -7.70041 -11.9519 1.2762e+06
0 -6.96844 -11.7884 1.25904e+06
0 -6.23648 -11.6249 1.24058e+06
0 -5.50451 -11.4614 1.22158e+06
0 -4.77255 -11.298 1.2029e+06
0 -4.04058 -11.1345 1.18511e+06
0 -3.30862 -10.971 1.16855e+06
0 -2.57665 -10.8075 1.15234e+06
0 -1.84469 -10.644 1.13634e+06
0 -1.11272 -10.4805 1.12009e+06
0 -0.380755 -10.3171 1.10286e+06
0 0.35121 -10.1536 1.0848e+06
0 1.08318 -9.9901 1.06751e+06
0 1.81514 -9.82662 1.04848e+06
0 2.54711 -9.66313 1.03103e+06
0 3.27907 -9.49965 1.01325e+06
0 4.01104 -9.33617 994660
0 4.743 -9.17268 977314
0 5.47497 -9.0092 961419
0 6.20693 -8.84572 946656
0 6.9389 -8.68223 933133
0 7.67086 -8.51875 919276
0 8.40283 -8.35527 905171
0 9.13479 -8.19178 891937
0 9.86676 -8.0283 879503
0 10.5987 -7.86482 867118
0 11.3307 -7.70133 854950
0 12.0627 -7.53785 845673
0 12.7946 -7.37437 839928
0 13.5266 -7.21088 837229
0 14.2586 -7.0474 835607
0 14.9905 -6.88392 835152
0 15.7225 -6.72043 836663
0 16.4544 -6.55695 837132
0 17.1363 -5.97774 832106
0 17.7679 -4.9828 858493
0 18.3995 -3.98785 865653
0 19.0312 -2.99291 877272
0 19.6628 -1.99797 898797
0 20.2945 -1.00302 932234
0 20.5081 -0.0480747 953739
0 20.3038 0.866882 969676
0 20.0994 1.78184 983921
0 19.8951 2.6968 982170
0 19.6907 3.61175 982382
0 19.4864 4.52671 983095
0 19.282 5.44167 983606
0 19.0777 6.35662 983870
0 18.8733 7.27158 984019
0 18.6689 8.18654 984233
0 18.4646 9.10149 984776
0 18.2602 10.0164 985127
0 18.0559 10.9314 985258
0 17.8515 11.8464 985372
0 17.6472 12.7613 985460
0 17.4428 13.6763 985591
0 16.8432 14.4496 985631
0 15.8482 15.0812 985660
0 14.8533 15.7129 985869
0 13.8583 16.3445 986121
0 12.8634 16.9762 985958
0 11.8685 17.6078 985915
0 10.8735 18.2395 986171
0 9.87857 18.8711 986822
0 8.88363 19.5028 987497
0 7.88869 20.1344 987988
0 6.89374 20.766 988142
0 5.8988 21.3977 989064
0 -13.8738 17.4085 993773
0 -13.3858 17.5174 993441
0 -12.8978 17.6264 993294
0 -12.4098 17.7354 993056
0 -11.9218 17.8444 992800
0 -11.4339 17.9534 992255
0 -10.9459 18.0624 992242
0 -10.4579 18.1714 992199
0 -9.96994 18.2804 992098
0 -9.48196 18.3894 991997
0 -8.99399 18.4983 991893
0 -8.50601 18.6073 991790
0 -8.01803 18.7163 991694
0 -7.53006 18.8253 991609
0 -7.04208 18.9343 991537
0 -6.5541 19.0433 991480
0 -6.06613 19.1523 991436
0 -5.57815 19.2613 991404
0 -5.09017 19.3703 991380
0 -4.6022 19.4792 991362
0 -4.11422 19.5882 991342
0 -3.62624 19.6972 991309
0 -3.13826 19.8062 991257
0 -2.65029 19.9152 991194
0 -2.16231 20.0242 991053
0 -1.67433 20.1332 990938
0 -1.18636 20.2422 990851
0 -0.69838 20.3512 990763
0 -0.210403 20.4601 990674
0 0.277573 20.5691 990591
0 0.76555 20.6781 990509
0 1.25353 20.7871 990434
0 1.7415 20.8961 990362
0 2.22948 21.0051 990286
0 2.71746 21.1141 990140
0 3.20543 21.2231 990014
0 3.69341 21.3321 989834
0 4.18139 21.441 989621
0 4.66937 21.55 989318
0 5.15734 21.659 988965
0 -21.3817 5.91212 1.01341e+06
0 -20.75 6.90706 997377
0 -20.1184 7.902 996572
0 -19.4867 8.89695 996763
0 -18.8551 9.89189 996586
0 -18.2234 10.8868 996399
0 -17.5918 11.8818 996255
0 -16.9602 12.8767 996053
0 -16.3285 13.8717 995664
0 -15.6969 14.8666 995108
0 -15.0652 15.8615 994552
0 -14.4336 16.8565 993843
0 -18.53 -8.76718 1.21411e+06
0 -18.7344 -7.85222 1.18671e+06
0 -18.9387 -6.93727 1.15794e+06
0 -19.1431 -6.02231 1.13208e+06
0 -19.3474 -5.10735 1.11265e+06
0 -19.5518 -4.1924 1.09842e+06
0 -19.7561 -3.27744 1.08593e+06
0 -19.9605 -2.36248 1.07362e+06
0 -20.1648 -1.44753 1.05932e+06
0 -20.3692 -0.532572 1.04641e+06
0 -20.5736 0.382385 1.03108e+06
0 -20.7779 1.29734 1.02056e+06
0 -20.9823 2.2123 1.01895e+06
0 -21.1866 3.12725 1.01895e+06
0 -21.391 4.04221 1.01945e+06
0 -21.5953 4.95717 1.02825e+06
0 -12.9557 -12.6987 1.3333e+06
0 -13.9506 -12.0671 1.32558e+06
0 -14.9455 -11.4354 1.31102e+06
0 -15.9405 -10.8038 1.29278e+06
0 -16.9354 -10.1721 1.26796e+06
0 -17.9304 -9.54048 1.24188e+06
