# p  FACE_DATA 148
#  x  y  z  p
0 -14.2158 -10.5617 1.19531e+06
0 -13.4663 -10.5339 1.19501e+06
0 -12.7168 -10.5061 1.1882e+06
0 -11.9673 -10.4782 1.17421e+06
0 -11.2178 -10.4504 1.16069e+06
0 -10.4683 -10.4226 1.1514e+06
0 -9.71885 -10.3948 1.14056e+06
0 -8.96937 -10.3669 1.12915e+06
0 -8.21989 -10.3391 1.12033e+06
0 -7.4704 -10.3113 1.11252e+06
0 -6.72092 -10.2835 1.10411e+06
0 -5.97144 -10.2556 1.09488e+06
0 -5.22195 -10.2278 1.0856e+06
0 -4.47247 -10.2 1.07677e+06
0 -3.72298 -10.1722 1.06766e+06
0 -2.9735 -10.1443 1.05827e+06
0 -2.22402 -10.1165 1.04914e+06
0 -1.47453 -10.0887 1.04002e+06
0 -0.72505 -10.0608 1.03434e+06
0 0.0244334 -10.033 1.02992e+06
0 0.773917 -10.0052 1.02342e+06
0 1.5234 -9.97737 1.01528e+06
0 2.27288 -9.94954 1.00919e+06
0 3.02237 -9.92172 1.0034e+06
0 3.77185 -9.89389 1.00063e+06
0 4.52134 -9.86606 996957
0 5.27082 -9.83824 991945
0 6.0203 -9.81041 989437
0 6.76979 -9.78258 989116
0 7.51927 -9.75476 989415
0 8.26875 -9.72693 989550
0 9.01824 -9.6991 990450
0 9.76772 -9.67128 992511
0 10.5172 -9.64345 996854
0 11.2667 -9.61562 1.00229e+06
0 12.0162 -9.5878 1.00942e+06
0 12.7657 -9.55997 1.01871e+06
0 13.5151 -9.53214 1.02971e+06
0 14.2646 -9.50432 1.03757e+06
0 15.0141 -9.47649 1.05078e+06
0 15.7898 -9.03074 1.04833e+06
0 16.5916 -8.16706 1.06471e+06
0 17.3935 -7.30338 1.06449e+06
0 18.1953 -6.4397 1.06259e+06
0 18.9971 -5.57603 1.07072e+06
0 19.799 -4.71235 1.08421e+06
0 20.1825 -3.81208 1.12053e+06
0 20.1477 -2.87523 1.09893e+06
0 20.1129 -1.93837 1.05658e+06
0 20.0782 -1.00152 1.024e+06
0 20.0434 -0.0646634 1.00104e+06
0 20.0086 0.872191 993005
0 19.9738 1.80905 996817
0 19.939 2.7459 1.00212e+06
0 19.9042 3.68275 1.00046e+06
0 19.8695 4.61961 996788
0 19.8347 5.55646 989280
0 19.7999 6.49332 984148
0 19.7651 7.43017 987373
0 19.7303 8.36703 987607
0 19.6955 9.30388 987245
0 19.6608 10.2407 984937
0 19.2115 11.1101 991772
0 18.3478 11.9119 988252
0 17.4842 12.7138 986670
0 16.6205 13.5156 985967
0 15.7568 14.3174 985732
0 14.8931 15.1193 985691
0 14.0295 15.9211 985917
0 13.1658 16.723 986745
0 12.3021 17.5248 985445
0 11.4384 18.3267 988675
0 10.5747 19.1285 988348
0 9.71106 19.9303 990321
0 -10.4572 19.5985 995009
0 -9.95752 19.617 994876
0 -9.45787 19.6356 994604
0 -8.95821 19.6541 993937
0 -8.45855 19.6727 993342
0 -7.9589 19.6912 993030
0 -7.45924 19.7098 992740
0 -6.95959 19.7283 992456
0 -6.45993 19.7469 992176
0 -5.96027 19.7654 991897
0 -5.46062 19.784 991706
0 -4.96096 19.8026 991666
0 -4.46131 19.8211 991679
0 -3.96165 19.8397 991684
0 -3.462 19.8582 991647
0 -2.96234 19.8768 991585
0 -2.46268 19.8953 991512
0 -1.96303 19.9139 991450
0 -1.46337 19.9324 991398
0 -0.963718 19.951 991311
0 -0.464062 19.9695 991204
0 0.0355939 19.9881 991077
0 0.53525 20.0066 990927
0 1.03491 20.0252 990765
0 1.53456 20.0437 990606
0 2.03422 20.0623 990436
0 2.53387 20.0808 990281
0 3.03353 20.0994 990161
0 3.53318 20.1179 990075
0 4.03284 20.1365 990032
0 4.5325 20.155 990009
0 5.03215 20.1736 989977
0 5.53181 20.1921 989960
0 6.03146 20.2107 990107
0 6.53112 20.2292 990220
0 7.03077 20.2478 990270
0 7.53043 20.2663 990606
0 8.03009 20.2849 990807
0 8.52974 20.3034 990534
0 9.0294 20.322 990277
0 -19.9282 9.65692 1.00211e+06
0 -19.1263 10.5206 1.00098e+06
0 -18.3245 11.3843 999340
0 -17.5227 12.248 998293
0 -16.7208 13.1116 997535
0 -15.919 13.9753 996948
0 -15.1171 14.839 996342
0 -14.3153 15.7027 995641
0 -13.5134 16.5663 995117
0 -12.7116 17.43 995044
0 -11.9098 18.2937 995250
0 -11.1079 19.1574 995065
0 -19.79 -5.29617 1.13493e+06
0 -19.8247 -4.35931 1.10936e+06
0 -19.8595 -3.42246 1.09756e+06
0 -19.8943 -2.4856 1.09546e+06
0 -19.9291 -1.54875 1.08217e+06
0 -19.9639 -0.611895 1.04019e+06
0 -19.9987 0.324959 1.00519e+06
0 -20.0334 1.26181 1.00274e+06
0 -20.0682 2.19867 1.00356e+06
0 -20.103 3.13552 1.00282e+06
0 -20.1378 4.07238 1.00072e+06
0 -20.1726 5.00923 999907
0 -20.2074 5.94609 1.00194e+06
0 -20.2421 6.88294 1.02431e+06
0 -20.2769 7.8198 1.02353e+06
0 -20.3117 8.75665 1.00662e+06
0 -15.0223 -10.1747 1.19467e+06
0 -15.886 -9.37288 1.1878e+06
0 -16.7497 -8.57104 1.17777e+06
0 -17.6134 -7.7692 1.17129e+06
0 -18.477 -6.96736 1.16833e+06
0 -19.3407 -6.16552 1.16024e+06
