# p  FACE_DATA 148
#  x  y  z  p
0 -16.1113 -7.46567 1.01118e+06
0 -15.3723 -7.59356 1.00537e+06
0 -14.6332 -7.72146 1.00578e+06
0 -13.8942 -7.84936 1.00479e+06
0 -13.1552 -7.97726 1.00303e+06
0 -12.4162 -8.10515 1.00105e+06
0 -11.6772 -8.23305 999039
0 -10.9382 -8.36095 997559
0 -10.1992 -8.48884 997261
0 -9.46014 -8.61674 997981
0 -8.72113 -8.74464 999151
0 -7.98211 -8.87254 1.00092e+06
0 -7.2431 -9.00043 1.00406e+06
0 -6.50408 -9.12833 1.00885e+06
0 -5.76507 -9.25623 1.01464e+06
0 -5.02606 -9.38413 1.02101e+06
0 -4.28704 -9.51202 1.02759e+06
0 -3.54803 -9.63992 1.03461e+06
0 -2.80901 -9.76782 1.04316e+06
0 -2.07 -9.89572 1.05314e+06
0 -1.33098 -10.0236 1.06602e+06
0 -0.591969 -10.1515 1.08215e+06
0 0.147045 -10.2794 1.09928e+06
0 0.88606 -10.4073 1.11385e+06
0 1.62507 -10.5352 1.12321e+06
0 2.36409 -10.6631 1.13356e+06
0 3.1031 -10.791 1.14606e+06
0 3.84212 -10.9189 1.15954e+06
0 4.58113 -11.0468 1.17276e+06
0 5.32015 -11.1747 1.18584e+06
0 6.05916 -11.3026 1.19896e+06
0 6.79817 -11.4305 1.21211e+06
0 7.53719 -11.5584 1.22539e+06
0 8.2762 -11.6863 1.23852e+06
0 9.01522 -11.8142 1.25122e+06
0 9.75423 -11.9421 1.26323e+06
0 10.4932 -12.07 1.2742e+06
0 11.2323 -12.1979 1.28386e+06
0 11.9713 -12.3258 1.28969e+06
0 12.7103 -12.4537 1.30509e+06
0 13.5614 -12.1781 1.30231e+06
0 14.5247 -11.4991 1.27972e+06
0 15.4879 -10.8201 1.26042e+06
0 16.4511 -10.141 1.24143e+06
0 17.4144 -9.46203 1.22236e+06
0 18.3776 -8.78301 1.20088e+06
0 18.9391 -7.98161 1.1756e+06
0 19.099 -7.05784 1.15039e+06
0 19.2589 -6.13408 1.12141e+06
0 19.4188 -5.21031 1.08982e+06
0 19.5786 -4.28654 1.05352e+06
0 19.7385 -3.36277 1.01442e+06
0 19.8984 -2.439 1.01043e+06
0 20.0582 -1.51524 1.00995e+06
0 20.2181 -0.591469 1.0096e+06
0 20.378 0.332299 1.00925e+06
0 20.5379 1.25607 1.00889e+06
0 20.6977 2.17984 1.00855e+06
0 20.8576 3.1036 1.00824e+06
0 21.0175 4.02737 1.00795e+06
0 21.1773 4.95114 1.00769e+06
0 21.3372 5.87491 1.00743e+06
0 21.0776 6.81841 1.00711e+06
0 20.3986 7.78164 1.00656e+06
0 19.7196 8.74488 1.00605e+06
0 19.0406 9.70811 1.00565e+06
0 18.3616 10.6713 1.00532e+06
0 17.6826 11.6346 1.00506e+06
0 17.0035 12.5978 1.00485e+06
0 16.3245 13.5611 1.00469e+06
0 15.6455 14.5243 1.0045e+06
0 14.9665 15.4875 1.00429e+06
0 14.2875 16.4508 1.00405e+06
0 13.6084 17.414 1.00377e+06
0 -6.19178 21.2636 1.00171e+06
0 -5.69911 21.1783 1.00177e+06
0 -5.20643 21.093 1.00183e+06
0 -4.71376 21.0078 1.00189e+06
0 -4.22108 20.9225 1.00193e+06
0 -3.7284 20.8373 1.00198e+06
0 -3.23573 20.752 1.00201e+06
0 -2.74305 20.6667 1.00204e+06
0 -2.25037 20.5815 1.00206e+06
0 -1.7577 20.4962 1.00208e+06
0 -1.26502 20.4109 1.0021e+06
0 -0.772345 20.3257 1.00212e+06
0 -0.279669 20.2404 1.00214e+06
0 0.213007 20.1551 1.00217e+06
0 0.705683 20.0699 1.00218e+06
0 1.19836 19.9846 1.00219e+06
0 1.69104 19.8993 1.00219e+06
0 2.18371 19.8141 1.00219e+06
0 2.67639 19.7288 1.00219e+06
0 3.16906 19.6435 1.0022e+06
0 3.66174 19.5583 1.00221e+06
0 4.15442 19.473 1.00224e+06
0 4.64709 19.3877 1.00227e+06
0 5.13977 19.3025 1.00231e+06
0 5.63245 19.2172 1.00236e+06
0 6.12512 19.132 1.00241e+06
0 6.6178 19.0467 1.00247e+06
0 7.11047 18.9614 1.00254e+06
0 7.60315 18.8762 1.00261e+06
0 8.09583 18.7909 1.00269e+06
0 8.5885 18.7056 1.00278e+06
0 9.08118 18.6204 1.00288e+06
0 9.57386 18.5351 1.00298e+06
0 10.0665 18.4498 1.00307e+06
0 10.5592 18.3646 1.00318e+06
0 11.0519 18.2793 1.00329e+06
0 11.5446 18.194 1.0034e+06
0 12.0372 18.1088 1.0035e+06
0 12.5299 18.0235 1.0036e+06
0 13.0226 17.9382 1.00371e+06
0 -17.5153 13.4975 1.00087e+06
0 -16.5521 14.1765 1.00094e+06
0 -15.5889 14.8555 1.00106e+06
0 -14.6256 15.5345 1.00117e+06
0 -13.6624 16.2136 1.00124e+06
0 -12.6992 16.8926 1.00123e+06
0 -11.7359 17.5716 1.0012e+06
0 -10.7727 18.2506 1.00122e+06
0 -9.80945 18.9296 1.00128e+06
0 -8.84621 19.6087 1.00142e+06
0 -7.88298 20.2877 1.00159e+06
0 -6.91974 20.9667 1.00174e+06
0 -20.475 -1.16042 1.05358e+06
0 -20.3151 -0.236654 1.05851e+06
0 -20.1552 0.687114 1.05479e+06
0 -19.9953 1.61088 1.04373e+06
0 -19.8355 2.53465 1.03009e+06
0 -19.6756 3.45842 1.01933e+06
0 -19.5157 4.38219 1.01098e+06
0 -19.3559 5.30595 1.00464e+06
0 -19.196 6.22972 1.00175e+06
0 -19.0361 7.15349 1.00097e+06
0 -18.8762 8.07726 1.00091e+06
0 -18.7164 9.00103 1.0008e+06
0 -18.5565 9.92479 1.00073e+06
0 -18.3966 10.8486 1.00073e+06
0 -18.2368 11.7723 1.00077e+06
0 -18.0769 12.6961 1.0008e+06
0 -16.8203 -6.9201 1.00569e+06
0 -17.4993 -5.95686 1.01464e+06
0 -18.1783 -4.99363 1.02026e+06
0 -18.8573 -4.03039 1.02605e+06
0 -19.5364 -3.06716 1.03227e+06
0 -20.2154 -2.10392 1.04018e+06
