# Field minima and maxima
# Time       	field        	min          	location(min)	processor    	max          	location(max)	processor    
0.0011976    	U            	0.000000e+00	(-1.100056e-02 -1.100056e-02 0.000000e+00)	0	1.000000e-01	(-7.333707e-03 -7.333707e-03 0.000000e+00)	0
0.0026382    	U            	0.000000e+00	(-1.100056e-02 -1.100056e-02 0.000000e+00)	0	1.000000e-01	(-7.333707e-03 -7.333707e-03 0.000000e+00)	0
0.00436945   	U            	0.000000e+00	(-1.100056e-02 -1.100056e-02 0.000000e+00)	0	1.000000e-01	(-7.333707e-03 -7.333707e-03 0.000000e+00)	0
0.00645062   	U            	0.000000e+00	(-1.100056e-02 -1.100056e-02 0.000000e+00)	0	1.000000e-01	(-7.333707e-03 -7.333707e-03 0.000000e+00)	0
0.00893202   	U            	0.000000e+00	(-1.100056e-02 -1.100056e-02 0.000000e+00)	0	1.000000e-01	(-7.333707e-03 -7.333707e-03 0.000000e+00)	0
0.0119175    	U            	0.000000e+00	(-1.100056e-02 -1.100056e-02 0.000000e+00)	0	1.000000e-01	(-7.333707e-03 -7.333707e-03 0.000000e+00)	0
0.0154662    	U            	0.000000e+00	(-1.100056e-02 -1.100056e-02 0.000000e+00)	0	1.000000e-01	(-7.333707e-03 -7.333707e-03 0.000000e+00)	0
0.0197577    	U            	0.000000e+00	(-1.100056e-02 -1.100056e-02 0.000000e+00)	0	1.000000e-01	(-7.333707e-03 -7.333707e-03 0.000000e+00)	0
0.0249075    	U            	0.000000e+00	(-1.100056e-02 -1.100056e-02 0.000000e+00)	0	1.000000e-01	(-7.333707e-03 -7.333707e-03 0.000000e+00)	0
0.0311608    	U            	0.000000e+00	(-1.100056e-02 -1.100056e-02 0.000000e+00)	0	1.000000e-01	(-7.333707e-03 -7.333707e-03 0.000000e+00)	0
0.0385016    	U            	0.000000e+00	(-1.100056e-02 -1.100056e-02 0.000000e+00)	0	1.000000e-01	(-7.333707e-03 -7.333707e-03 0.000000e+00)	0
0.0474737    	U            	0.000000e+00	(-1.100056e-02 -1.100056e-02 0.000000e+00)	0	1.000000e-01	(-7.333707e-03 -7.333707e-03 0.000000e+00)	0
0.0583685    	U            	0.000000e+00	(-1.100056e-02 -1.100056e-02 0.000000e+00)	0	1.000000e-01	(-7.333707e-03 -7.333707e-03 0.000000e+00)	0
0.0712441    	U            	0.000000e+00	(-1.100056e-02 -1.100056e-02 0.000000e+00)	0	1.000000e-01	(-7.333707e-03 -7.333707e-03 0.000000e+00)	0
0.0873385    	U            	0.000000e+00	(-1.100056e-02 -1.100056e-02 0.000000e+00)	0	1.000000e-01	(-7.333707e-03 -7.333707e-03 0.000000e+00)	0
0.106115     	U            	0.000000e+00	(-1.100056e-02 -1.100056e-02 0.000000e+00)	0	1.000000e-01	(-7.333707e-03 -7.333707e-03 0.000000e+00)	0
0.129587     	U            	0.000000e+00	(-1.100056e-02 -1.100056e-02 0.000000e+00)	0	3.415638e-01	(-1.388920e-02 1.168871e-02 5.956500e-01)	3
0.14719      	U            	0.000000e+00	(-1.100056e-02 -1.100056e-02 0.000000e+00)	0	7.683052e-01	(-1.388920e-02 1.168871e-02 5.956500e-01)	3
0.154734     	U            	0.000000e+00	(-1.100056e-02 -1.100056e-02 0.000000e+00)	0	3.265001e-01	(-1.788527e-02 1.467634e-02 5.956500e-01)	3
0.163787     	U            	0.000000e+00	(-1.100056e-02 -1.100056e-02 0.000000e+00)	0	5.116606e-01	(-1.467634e-02 1.788527e-02 5.956500e-01)	3
0.175858     	U            	0.000000e+00	(-1.100056e-02 -1.100056e-02 0.000000e+00)	0	3.943280e-01	(1.388920e-02 1.168871e-02 5.956500e-01)	3
0.187929     	U            	0.000000e+00	(-1.100056e-02 -1.100056e-02 0.000000e+00)	0	2.939311e-01	(-1.757252e-02 2.175901e-02 5.956500e-01)	3
0.2          	U            	0.000000e+00	(-1.100056e-02 -1.100056e-02 0.000000e+00)	0	2.378687e-01	(1.388920e-02 -1.168871e-02 5.956500e-01)	3
0.214286     	U            	0.000000e+00	(-1.100056e-02 -1.100056e-02 0.000000e+00)	0	1.797296e-01	(1.388920e-02 1.168871e-02 5.956500e-01)	3
0.231169     	U            	0.000000e+00	(-1.100056e-02 -1.100056e-02 0.000000e+00)	0	1.646350e-01	(1.788527e-02 1.467634e-02 5.956500e-01)	3
0.252273     	U            	0.000000e+00	(-1.100056e-02 -1.100056e-02 0.000000e+00)	0	3.425055e-01	(1.388920e-02 1.168871e-02 5.956500e-01)	3
0.273377     	U            	0.000000e+00	(-1.100056e-02 -1.100056e-02 0.000000e+00)	0	6.241666e-01	(1.319433e-02 1.590302e-02 5.956500e-01)	3
0.280825     	U            	0.000000e+00	(-1.100056e-02 -1.100056e-02 0.000000e+00)	0	3.367532e-01	(-1.613555e-02 -1.983701e-02 5.956500e-01)	3
0.289338     	U            	0.000000e+00	(-1.100056e-02 -1.100056e-02 0.000000e+00)	0	3.341847e-01	(2.365191e-02 1.898773e-02 5.956500e-01)	3
0.299398     	U            	0.000000e+00	(-1.100056e-02 -1.100056e-02 0.000000e+00)	0	2.641954e-01	(2.365191e-02 1.898773e-02 5.956500e-01)	3
0.310576     	U            	0.000000e+00	(-1.100056e-02 -1.100056e-02 0.000000e+00)	0	2.130748e-01	(-1.757252e-02 -2.175901e-02 5.956500e-01)	3
0.323351     	U            	0.000000e+00	(-1.100056e-02 -1.100056e-02 0.000000e+00)	0	1.785272e-01	(1.788527e-02 1.467634e-02 5.956500e-01)	3
0.338681     	U            	0.000000e+00	(-1.100056e-02 -1.100056e-02 0.000000e+00)	0	2.204062e-01	(1.388920e-02 1.168871e-02 5.956500e-01)	3
0.35912      	U            	0.000000e+00	(-1.100056e-02 -1.100056e-02 0.000000e+00)	0	2.595273e-01	(1.983701e-02 1.613555e-02 5.956500e-01)	3
0.37956      	U            	0.000000e+00	(-1.100056e-02 -1.100056e-02 0.000000e+00)	0	4.704650e-01	(-1.757252e-02 2.175901e-02 5.956500e-01)	3
0.38978      	U            	0.000000e+00	(-1.100056e-02 -1.100056e-02 0.000000e+00)	0	1.725984e-01	(2.175901e-02 1.757252e-02 5.956500e-01)	3
0.4          	U            	0.000000e+00	(-1.100056e-02 -1.100056e-02 0.000000e+00)	0	2.853967e-01	(1.983701e-02 1.613555e-02 5.956500e-01)	3
0.4125       	U            	0.000000e+00	(-1.100056e-02 -1.100056e-02 0.000000e+00)	0	1.986451e-01	(-1.467634e-02 -1.788527e-02 5.956500e-01)	3
0.426923     	U            	0.000000e+00	(-1.100056e-02 -1.100056e-02 0.000000e+00)	0	1.886122e-01	(1.590302e-02 1.319433e-02 5.956500e-01)	3
0.444231     	U            	0.000000e+00	(-1.100056e-02 -1.100056e-02 0.000000e+00)	0	1.887438e-01	(2.175901e-02 1.757252e-02 5.956500e-01)	3
0.463702     	U            	0.000000e+00	(-1.100056e-02 -1.100056e-02 0.000000e+00)	0	1.934362e-01	(1.757252e-02 2.175901e-02 5.956500e-01)	3
0.486418     	U            	0.000000e+00	(-1.100056e-02 -1.100056e-02 0.000000e+00)	0	3.677957e-01	(2.175901e-02 1.757252e-02 5.956500e-01)	3
0.502644     	U            	0.000000e+00	(-1.100056e-02 -1.100056e-02 0.000000e+00)	0	9.061103e-01	(-1.613555e-02 -1.983701e-02 5.956500e-01)	3
0.51238      	U            	0.000000e+00	(-1.100056e-02 -1.100056e-02 0.000000e+00)	0	1.842609e-01	(1.898773e-02 2.365191e-02 5.956500e-01)	3
0.523332     	U            	0.000000e+00	(-1.100056e-02 -1.100056e-02 0.000000e+00)	0	2.405193e-01	(2.175901e-02 1.757252e-02 5.956500e-01)	3
0.53611      	U            	0.000000e+00	(-1.100056e-02 -1.100056e-02 0.000000e+00)	0	1.948492e-01	(2.175901e-02 1.757252e-02 5.956500e-01)	3
0.552083     	U            	0.000000e+00	(-1.100056e-02 -1.100056e-02 0.000000e+00)	0	1.845176e-01	(1.788527e-02 1.467634e-02 5.956500e-01)	3
0.576041     	U            	0.000000e+00	(-1.100056e-02 -1.100056e-02 0.000000e+00)	0	2.424906e-01	(-1.100056e-02 1.100056e-02 5.956500e-01)	3
0.6          	U            	0.000000e+00	(-1.100056e-02 -1.100056e-02 0.000000e+00)	0	6.690786e-01	(-1.757252e-02 -2.175901e-02 5.956500e-01)	3
0.610526     	U            	0.000000e+00	(-1.100056e-02 -1.100056e-02 0.000000e+00)	0	1.687981e-01	(1.898773e-02 2.365191e-02 5.956500e-01)	3
0.623158     	U            	0.000000e+00	(-1.100056e-02 -1.100056e-02 0.000000e+00)	0	3.351153e-01	(0.000000e+00 -1.044344e-01 5.956500e-01)	3
0.637895     	U            	0.000000e+00	(-1.100056e-02 -1.100056e-02 0.000000e+00)	0	1.743088e-01	(1.788527e-02 1.467634e-02 5.956500e-01)	3
0.655906     	U            	0.000000e+00	(-1.100056e-02 -1.100056e-02 0.000000e+00)	0	2.971329e-01	(0.000000e+00 -1.076971e-01 5.956500e-01)	3
0.676491     	U            	0.000000e+00	(-1.100056e-02 -1.100056e-02 0.000000e+00)	0	2.411178e-01	(1.613555e-02 -1.983701e-02 5.956500e-01)	3
0.701193     	U            	0.000000e+00	(-1.100056e-02 -1.100056e-02 0.000000e+00)	0	7.306828e-01	(-1.983701e-02 -1.613555e-02 5.956500e-01)	3
0.708251     	U            	0.000000e+00	(-1.100056e-02 -1.100056e-02 0.000000e+00)	0	2.306467e-01	(1.898773e-02 2.365191e-02 5.956500e-01)	3
0.716591     	U            	0.000000e+00	(-1.100056e-02 -1.100056e-02 0.000000e+00)	0	1.844022e-01	(-2.175901e-02 -1.757252e-02 5.956500e-01)	3
0.727018     	U            	0.000000e+00	(-1.100056e-02 -1.100056e-02 0.000000e+00)	0	2.397624e-01	(1.757252e-02 -2.175901e-02 5.956500e-01)	3
0.739181     	U            	0.000000e+00	(-1.100056e-02 -1.100056e-02 0.000000e+00)	0	1.669038e-01	(-1.590302e-02 -1.319433e-02 5.956500e-01)	3
0.754386     	U            	0.000000e+00	(-1.100056e-02 -1.100056e-02 0.000000e+00)	0	1.403437e-01	(-9.858691e-02 -2.250182e-02 5.956500e-01)	3
0.769591     	U            	0.000000e+00	(-1.100056e-02 -1.100056e-02 0.000000e+00)	0	1.163246e-01	(-2.175901e-02 -1.757252e-02 6.055500e-01)	3
0.784795     	U            	0.000000e+00	(-1.100056e-02 -1.100056e-02 0.000000e+00)	0	1.134061e-01	(-2.365191e-02 -1.898773e-02 6.055500e-01)	3
0.8          	U            	0.000000e+00	(-1.100056e-02 -1.100056e-02 0.000000e+00)	0	1.073972e-01	(-2.365191e-02 -1.898773e-02 6.055500e-01)	3
0.818182     	U            	0.000000e+00	(-1.100056e-02 -1.100056e-02 0.000000e+00)	0	1.249415e-01	(-1.590302e-02 -1.319433e-02 5.956500e-01)	3
0.840909     	U            	0.000000e+00	(-1.100056e-02 -1.100056e-02 0.000000e+00)	0	1.919583e-01	(1.613555e-02 -1.983701e-02 5.956500e-01)	3
0.867424     	U            	0.000000e+00	(-1.100056e-02 -1.100056e-02 0.000000e+00)	0	6.137145e-01	(-1.788527e-02 -1.467634e-02 5.956500e-01)	3
0.87571      	U            	0.000000e+00	(-1.100056e-02 -1.100056e-02 0.000000e+00)	0	2.262891e-01	(-7.333707e-03 -1.100056e-02 5.956500e-01)	3
0.886068     	U            	0.000000e+00	(-1.100056e-02 -1.100056e-02 0.000000e+00)	0	2.155419e-01	(-1.319433e-02 -1.590302e-02 5.956500e-01)	3
0.898727     	U            	0.000000e+00	(-1.100056e-02 -1.100056e-02 0.000000e+00)	0	1.463610e-01	(-1.319433e-02 -1.590302e-02 5.956500e-01)	3
0.913194     	U            	0.000000e+00	(-1.100056e-02 -1.100056e-02 0.000000e+00)	0	2.122770e-01	(-1.319433e-02 -1.590302e-02 5.956500e-01)	3
0.930556     	U            	0.000000e+00	(-1.100056e-02 -1.100056e-02 0.000000e+00)	0	1.375811e-01	(1.168871e-02 -1.388920e-02 5.956500e-01)	3
0.953704     	U            	0.000000e+00	(-1.100056e-02 -1.100056e-02 0.000000e+00)	0	2.361555e-01	(-1.590302e-02 -1.319433e-02 5.956500e-01)	3
0.976852     	U            	0.000000e+00	(-1.100056e-02 -1.100056e-02 0.000000e+00)	0	4.526546e-01	(1.590302e-02 1.319433e-02 5.956500e-01)	3
0.988426     	U            	0.000000e+00	(-1.100056e-02 -1.100056e-02 0.000000e+00)	0	4.290634e-01	(1.467634e-02 1.788527e-02 5.956500e-01)	3
1            	U            	0.000000e+00	(-1.100056e-02 -1.100056e-02 0.000000e+00)	0	2.745145e-01	(-2.038159e-02 -2.551624e-02 5.956500e-01)	3
1.01429      	U            	0.000000e+00	(-1.100056e-02 -1.100056e-02 0.000000e+00)	0	1.580329e-01	(-1.100056e-02 1.100056e-02 5.956500e-01)	3
1.03117      	U            	0.000000e+00	(-1.100056e-02 -1.100056e-02 0.000000e+00)	0	1.330757e-01	(1.613555e-02 1.983701e-02 5.956500e-01)	3
1.05227      	U            	0.000000e+00	(-1.100056e-02 -1.100056e-02 0.000000e+00)	0	1.412218e-01	(-1.100056e-02 -1.100056e-02 5.956500e-01)	3
1.07689      	U            	0.000000e+00	(-1.100056e-02 -1.100056e-02 0.000000e+00)	0	5.320364e-01	(-1.613555e-02 -1.983701e-02 5.956500e-01)	3
1.08569      	U            	0.000000e+00	(-1.100056e-02 -1.100056e-02 0.000000e+00)	0	1.742529e-01	(1.100056e-02 0.000000e+00 6.600000e-03)	0
1.09608      	U            	0.000000e+00	(-1.100056e-02 -1.100056e-02 0.000000e+00)	0	2.314103e-01	(-1.100056e-02 -1.100056e-02 5.956500e-01)	3
1.10907      	U            	0.000000e+00	(-1.100056e-02 -1.100056e-02 0.000000e+00)	0	1.657467e-01	(1.100056e-02 0.000000e+00 6.600000e-03)	0
1.12422      	U            	0.000000e+00	(-1.100056e-02 -1.100056e-02 0.000000e+00)	0	2.114282e-01	(-1.467634e-02 -1.788527e-02 5.956500e-01)	3
1.14317      	U            	0.000000e+00	(-1.100056e-02 -1.100056e-02 0.000000e+00)	0	1.379837e-01	(1.440183e-02 0.000000e+00 6.600000e-03)	0
1.16211      	U            	0.000000e+00	(-1.100056e-02 -1.100056e-02 0.000000e+00)	0	3.070356e-01	(-1.590302e-02 -1.319433e-02 5.956500e-01)	3
1.18106      	U            	0.000000e+00	(-1.100056e-02 -1.100056e-02 0.000000e+00)	0	6.634115e-01	(-7.333707e-03 -7.333707e-03 5.956500e-01)	3
1.19053      	U            	0.000000e+00	(-1.100056e-02 -1.100056e-02 0.000000e+00)	0	2.540726e-01	(-1.319433e-02 -1.590302e-02 5.956500e-01)	3
1.2          	U            	0.000000e+00	(-1.100056e-02 -1.100056e-02 0.000000e+00)	0	1.510216e-01	(-7.333707e-03 -7.333707e-03 6.600000e-03)	0
1.21111      	U            	0.000000e+00	(-1.100056e-02 -1.100056e-02 0.000000e+00)	0	1.961260e-01	(-7.333707e-03 -7.333707e-03 6.600000e-03)	0
1.2246       	U            	0.000000e+00	(-1.100056e-02 -1.100056e-02 0.000000e+00)	0	3.182585e-01	(-7.333707e-03 -7.333707e-03 6.600000e-03)	0
1.24055      	U            	0.000000e+00	(-1.100056e-02 -1.100056e-02 0.000000e+00)	0	4.184473e-01	(-7.333707e-03 -7.333707e-03 6.600000e-03)	0
1.26048      	U            	0.000000e+00	(-1.100056e-02 -1.100056e-02 0.000000e+00)	0	6.379830e-01	(0.000000e+00 7.333707e-03 6.600000e-03)	0
1.27792      	U            	0.000000e+00	(-1.100056e-02 -1.100056e-02 0.000000e+00)	0	7.834672e-01	(0.000000e+00 -7.333707e-03 6.600000e-03)	0
1.29318      	U            	0.000000e+00	(-1.100056e-02 -1.100056e-02 0.000000e+00)	0	6.445616e-01	(-7.333707e-03 -7.333707e-03 1.980000e-02)	0
1.30505      	U            	0.000000e+00	(-1.100056e-02 -1.100056e-02 0.000000e+00)	0	3.275550e+00	(0.000000e+00 0.000000e+00 6.600000e-03)	0
1.31183      	U            	0.000000e+00	(-1.100056e-02 -1.100056e-02 0.000000e+00)	0	1.650657e+00	(0.000000e+00 -3.666854e-03 6.600000e-03)	0
1.31985      	U            	0.000000e+00	(-1.100056e-02 -1.100056e-02 0.000000e+00)	0	1.431471e+00	(0.000000e+00 0.000000e+00 6.600000e-03)	0
1.32875      	U            	0.000000e+00	(-1.100056e-02 -1.100056e-02 0.000000e+00)	0	1.551986e+00	(0.000000e+00 0.000000e+00 6.600000e-03)	0
1.33588      	U            	0.000000e+00	(-1.100056e-02 -1.100056e-02 0.000000e+00)	0	3.001547e+00	(0.000000e+00 0.000000e+00 1.980000e-02)	0
1.34122      	U            	0.000000e+00	(-1.100056e-02 -1.100056e-02 0.000000e+00)	0	2.135507e+00	(0.000000e+00 -3.666854e-03 1.980000e-02)	0
1.3471       	U            	0.000000e+00	(-1.100056e-02 -1.100056e-02 0.000000e+00)	0	2.025930e+00	(0.000000e+00 0.000000e+00 1.980000e-02)	0
1.35371      	U            	0.000000e+00	(-1.100056e-02 -1.100056e-02 0.000000e+00)	0	1.583078e+00	(0.000000e+00 0.000000e+00 1.980000e-02)	0
1.36143      	U            	0.000000e+00	(-1.100056e-02 -1.100056e-02 0.000000e+00)	0	1.806851e+00	(0.000000e+00 0.000000e+00 3.300000e-02)	0
1.36914      	U            	0.000000e+00	(-1.100056e-02 -1.100056e-02 0.000000e+00)	0	2.033719e+00	(0.000000e+00 0.000000e+00 3.300000e-02)	0
1.37686      	U            	0.000000e+00	(-1.100056e-02 -1.100056e-02 0.000000e+00)	0	1.608184e+00	(0.000000e+00 0.000000e+00 3.300000e-02)	0
1.38457      	U            	0.000000e+00	(-1.100056e-02 -1.100056e-02 0.000000e+00)	0	1.305676e+00	(0.000000e+00 0.000000e+00 3.300000e-02)	0
1.39229      	U            	0.000000e+00	(-1.100056e-02 -1.100056e-02 0.000000e+00)	0	1.407473e+00	(0.000000e+00 0.000000e+00 4.620000e-02)	0
1.4          	U            	0.000000e+00	(-1.100056e-02 -1.100056e-02 0.000000e+00)	0	1.382392e+00	(0.000000e+00 0.000000e+00 4.620000e-02)	0
1.4087       	U            	0.000000e+00	(-1.100056e-02 -1.100056e-02 0.000000e+00)	0	1.336053e+00	(0.000000e+00 0.000000e+00 4.620000e-02)	0
1.41826      	U            	0.000000e+00	(-1.100056e-02 -1.100056e-02 0.000000e+00)	0	1.230582e+00	(0.000000e+00 0.000000e+00 4.620000e-02)	0
1.42895      	U            	0.000000e+00	(-1.100056e-02 -1.100056e-02 0.000000e+00)	0	1.103519e+00	(0.000000e+00 0.000000e+00 5.940000e-02)	0
1.44117      	U            	0.000000e+00	(-1.100056e-02 -1.100056e-02 0.000000e+00)	0	1.169048e+00	(0.000000e+00 -3.666854e-03 5.940000e-02)	0
1.45176      	U            	0.000000e+00	(-1.100056e-02 -1.100056e-02 0.000000e+00)	0	1.093297e+00	(0.000000e+00 0.000000e+00 7.095000e-02)	0
1.46102      	U            	0.000000e+00	(-1.100056e-02 -1.100056e-02 0.000000e+00)	0	1.027552e+00	(0.000000e+00 0.000000e+00 7.095000e-02)	0
1.47095      	U            	0.000000e+00	(-1.100056e-02 -1.100056e-02 0.000000e+00)	0	9.825581e-01	(0.000000e+00 0.000000e+00 7.095000e-02)	0
1.48088      	U            	0.000000e+00	(-1.100056e-02 -1.100056e-02 0.000000e+00)	0	1.090492e+00	(0.000000e+00 0.000000e+00 1.980000e-02)	0
1.4908       	U            	0.000000e+00	(-1.100056e-02 -1.100056e-02 0.000000e+00)	0	1.121399e+00	(0.000000e+00 0.000000e+00 1.980000e-02)	0
1.50073      	U            	0.000000e+00	(-1.100056e-02 -1.100056e-02 0.000000e+00)	0	1.098532e+00	(0.000000e+00 0.000000e+00 3.300000e-02)	0
1.51066      	U            	0.000000e+00	(-1.100056e-02 -1.100056e-02 0.000000e+00)	0	1.089647e+00	(-3.666854e-03 0.000000e+00 3.300000e-02)	0
1.52058      	U            	0.000000e+00	(-1.100056e-02 -1.100056e-02 0.000000e+00)	0	1.128288e+00	(0.000000e+00 0.000000e+00 4.620000e-02)	0
1.53051      	U            	0.000000e+00	(-1.100056e-02 -1.100056e-02 0.000000e+00)	0	1.077838e+00	(0.000000e+00 0.000000e+00 5.940000e-02)	0
1.54044      	U            	0.000000e+00	(-1.100056e-02 -1.100056e-02 0.000000e+00)	0	1.207294e+00	(-3.666854e-03 0.000000e+00 5.940000e-02)	0
1.54895      	U            	0.000000e+00	(-1.100056e-02 -1.100056e-02 0.000000e+00)	0	1.274128e+00	(-3.666854e-03 0.000000e+00 7.095000e-02)	0
1.55746      	U            	0.000000e+00	(-1.100056e-02 -1.100056e-02 0.000000e+00)	0	1.260099e+00	(-3.666854e-03 0.000000e+00 8.085000e-02)	0
1.56455      	U            	0.000000e+00	(-1.100056e-02 -1.100056e-02 0.000000e+00)	0	1.236649e+00	(0.000000e+00 -3.666854e-03 8.085000e-02)	0
1.57164      	U            	0.000000e+00	(-1.100056e-02 -1.100056e-02 0.000000e+00)	0	1.172612e+00	(0.000000e+00 0.000000e+00 9.075000e-02)	0
1.57873      	U            	0.000000e+00	(-1.100056e-02 -1.100056e-02 0.000000e+00)	0	1.166337e+00	(0.000000e+00 0.000000e+00 9.075000e-02)	0
1.58582      	U            	0.000000e+00	(-1.100056e-02 -1.100056e-02 0.000000e+00)	0	1.117905e+00	(-3.666854e-03 0.000000e+00 9.075000e-02)	0
1.59291      	U            	0.000000e+00	(-1.100056e-02 -1.100056e-02 0.000000e+00)	0	1.083525e+00	(0.000000e+00 0.000000e+00 1.006500e-01)	0
1.6          	U            	0.000000e+00	(-1.100056e-02 -1.100056e-02 0.000000e+00)	0	1.071379e+00	(0.000000e+00 0.000000e+00 1.105500e-01)	0
1.608        	U            	0.000000e+00	(-1.100056e-02 -1.100056e-02 0.000000e+00)	0	1.056483e+00	(-3.666854e-03 0.000000e+00 1.204500e-01)	0
1.61714      	U            	0.000000e+00	(-1.100056e-02 -1.100056e-02 0.000000e+00)	0	1.020615e+00	(0.000000e+00 0.000000e+00 1.303500e-01)	0
1.62677      	U            	0.000000e+00	(-1.100056e-02 -1.100056e-02 0.000000e+00)	0	9.826075e-01	(-3.666854e-03 0.000000e+00 1.303500e-01)	0
1.63696      	U            	0.000000e+00	(-1.100056e-02 -1.100056e-02 0.000000e+00)	0	9.708374e-01	(-3.666854e-03 0.000000e+00 8.085000e-02)	0
1.64715      	U            	0.000000e+00	(-1.100056e-02 -1.100056e-02 0.000000e+00)	0	1.025756e+00	(-3.666854e-03 0.000000e+00 9.075000e-02)	0
1.6567       	U            	0.000000e+00	(-1.100056e-02 -1.100056e-02 0.000000e+00)	0	1.094386e+00	(0.000000e+00 0.000000e+00 9.075000e-02)	0
1.66566      	U            	0.000000e+00	(-1.100056e-02 -1.100056e-02 0.000000e+00)	0	1.174499e+00	(0.000000e+00 0.000000e+00 1.006500e-01)	0
1.67461      	U            	0.000000e+00	(-1.100056e-02 -1.100056e-02 0.000000e+00)	0	1.186895e+00	(0.000000e+00 0.000000e+00 1.105500e-01)	0
1.68357      	U            	0.000000e+00	(-1.100056e-02 -1.100056e-02 0.000000e+00)	0	1.151268e+00	(-3.666854e-03 0.000000e+00 3.300000e-02)	0
1.69189      	U            	0.000000e+00	(-1.100056e-02 -1.100056e-02 0.000000e+00)	0	1.175785e+00	(0.000000e+00 0.000000e+00 1.204500e-01)	0
1.7002       	U            	0.000000e+00	(-1.100056e-02 -1.100056e-02 0.000000e+00)	0	1.073248e+00	(-3.666854e-03 0.000000e+00 4.620000e-02)	0
1.70852      	U            	0.000000e+00	(-1.100056e-02 -1.100056e-02 0.000000e+00)	0	1.075520e+00	(-3.666854e-03 0.000000e+00 5.940000e-02)	0
1.71684      	U            	0.000000e+00	(-1.100056e-02 -1.100056e-02 0.000000e+00)	0	1.067027e+00	(-3.666854e-03 0.000000e+00 5.940000e-02)	0
1.72515      	U            	0.000000e+00	(-1.100056e-02 -1.100056e-02 0.000000e+00)	0	1.067552e+00	(-3.666854e-03 0.000000e+00 7.095000e-02)	0
1.73347      	U            	0.000000e+00	(-1.100056e-02 -1.100056e-02 0.000000e+00)	0	1.062681e+00	(-3.666854e-03 0.000000e+00 8.085000e-02)	0
1.74178      	U            	0.000000e+00	(-1.100056e-02 -1.100056e-02 0.000000e+00)	0	1.058325e+00	(-3.666854e-03 0.000000e+00 8.085000e-02)	0
1.7501       	U            	0.000000e+00	(-1.100056e-02 -1.100056e-02 0.000000e+00)	0	1.079413e+00	(0.000000e+00 0.000000e+00 1.105500e-01)	0
1.75842      	U            	0.000000e+00	(-1.100056e-02 -1.100056e-02 0.000000e+00)	0	1.131293e+00	(0.000000e+00 0.000000e+00 1.204500e-01)	0
1.76673      	U            	0.000000e+00	(-1.100056e-02 -1.100056e-02 0.000000e+00)	0	1.117609e+00	(0.000000e+00 0.000000e+00 1.303500e-01)	0
1.77505      	U            	0.000000e+00	(-1.100056e-02 -1.100056e-02 0.000000e+00)	0	1.128834e+00	(0.000000e+00 0.000000e+00 1.303500e-01)	0
1.78337      	U            	0.000000e+00	(-1.100056e-02 -1.100056e-02 0.000000e+00)	0	1.121863e+00	(0.000000e+00 0.000000e+00 1.402500e-01)	0
1.79168      	U            	0.000000e+00	(-1.100056e-02 -1.100056e-02 0.000000e+00)	0	1.128168e+00	(0.000000e+00 0.000000e+00 1.303500e-01)	0
1.8          	U            	0.000000e+00	(-1.100056e-02 -1.100056e-02 0.000000e+00)	0	1.137319e+00	(0.000000e+00 0.000000e+00 1.402500e-01)	0
1.80833      	U            	0.000000e+00	(-1.100056e-02 -1.100056e-02 0.000000e+00)	0	1.091237e+00	(0.000000e+00 0.000000e+00 1.501500e-01)	0
1.81705      	U            	0.000000e+00	(-1.100056e-02 -1.100056e-02 0.000000e+00)	0	1.085181e+00	(0.000000e+00 0.000000e+00 1.501500e-01)	0
1.82576      	U            	0.000000e+00	(-1.100056e-02 -1.100056e-02 0.000000e+00)	0	1.035948e+00	(0.000000e+00 0.000000e+00 1.600500e-01)	0
1.83447      	U            	0.000000e+00	(-1.100056e-02 -1.100056e-02 0.000000e+00)	0	1.057273e+00	(-3.666854e-03 -3.666854e-03 2.095500e-01)	1
1.84367      	U            	0.000000e+00	(-1.100056e-02 -1.100056e-02 0.000000e+00)	0	1.017529e+00	(-3.666854e-03 -3.666854e-03 2.095500e-01)	1
1.85235      	U            	0.000000e+00	(-1.100056e-02 -1.100056e-02 0.000000e+00)	0	1.010199e+00	(-3.666854e-03 0.000000e+00 9.075000e-02)	0
1.86104      	U            	0.000000e+00	(-1.100056e-02 -1.100056e-02 0.000000e+00)	0	1.024037e+00	(-3.666854e-03 0.000000e+00 1.006500e-01)	0
1.86972      	U            	0.000000e+00	(-1.100056e-02 -1.100056e-02 0.000000e+00)	0	1.024556e+00	(-3.666854e-03 0.000000e+00 1.105500e-01)	0
1.87841      	U            	0.000000e+00	(-1.100056e-02 -1.100056e-02 0.000000e+00)	0	1.032489e+00	(-3.666854e-03 0.000000e+00 1.105500e-01)	0
1.88776      	U            	0.000000e+00	(-1.100056e-02 -1.100056e-02 0.000000e+00)	0	1.056738e+00	(-3.666854e-03 0.000000e+00 1.204500e-01)	0
1.89711      	U            	0.000000e+00	(-1.100056e-02 -1.100056e-02 0.000000e+00)	0	1.061489e+00	(-3.666854e-03 0.000000e+00 1.303500e-01)	0
1.90647      	U            	0.000000e+00	(-1.100056e-02 -1.100056e-02 0.000000e+00)	0	1.066201e+00	(-3.666854e-03 0.000000e+00 1.402500e-01)	0
1.91582      	U            	0.000000e+00	(-1.100056e-02 -1.100056e-02 0.000000e+00)	0	1.075969e+00	(-3.666854e-03 0.000000e+00 1.501500e-01)	0
1.92517      	U            	0.000000e+00	(-1.100056e-02 -1.100056e-02 0.000000e+00)	0	1.087051e+00	(-3.666854e-03 0.000000e+00 1.600500e-01)	0
1.93349      	U            	0.000000e+00	(-1.100056e-02 -1.100056e-02 0.000000e+00)	0	1.085332e+00	(-3.666854e-03 0.000000e+00 1.600500e-01)	0
1.94299      	U            	0.000000e+00	(-1.100056e-02 -1.100056e-02 0.000000e+00)	0	1.089627e+00	(-3.666854e-03 0.000000e+00 1.699500e-01)	0
1.95249      	U            	0.000000e+00	(-1.100056e-02 -1.100056e-02 0.000000e+00)	0	1.081162e+00	(-3.666854e-03 0.000000e+00 1.699500e-01)	0
1.96199      	U            	0.000000e+00	(-1.100056e-02 -1.100056e-02 0.000000e+00)	0	1.070421e+00	(-3.666854e-03 0.000000e+00 1.798500e-01)	0
1.97149      	U            	0.000000e+00	(-1.100056e-02 -1.100056e-02 0.000000e+00)	0	1.040822e+00	(-3.666854e-03 0.000000e+00 1.897500e-01)	1
1.981        	U            	0.000000e+00	(-1.100056e-02 -1.100056e-02 0.000000e+00)	0	1.014614e+00	(-3.666854e-03 0.000000e+00 1.996500e-01)	1
1.9905       	U            	0.000000e+00	(-1.100056e-02 -1.100056e-02 0.000000e+00)	0	9.841445e-01	(-3.666854e-03 0.000000e+00 1.996500e-01)	1
2            	U            	0.000000e+00	(-1.100056e-02 -1.100056e-02 0.000000e+00)	0	9.887280e-01	(0.000000e+00 0.000000e+00 1.402500e-01)	0
2.00909      	U            	0.000000e+00	(-1.100056e-02 -1.100056e-02 0.000000e+00)	0	9.951269e-01	(-3.666854e-03 0.000000e+00 8.085000e-02)	0
2.01777      	U            	0.000000e+00	(-1.100056e-02 -1.100056e-02 0.000000e+00)	0	9.946878e-01	(0.000000e+00 0.000000e+00 8.085000e-02)	0
2.02688      	U            	0.000000e+00	(-1.100056e-02 -1.100056e-02 0.000000e+00)	0	9.976232e-01	(0.000000e+00 0.000000e+00 9.075000e-02)	0
2.03599      	U            	0.000000e+00	(-1.100056e-02 -1.100056e-02 0.000000e+00)	0	1.007940e+00	(0.000000e+00 0.000000e+00 1.006500e-01)	0
2.0451       	U            	0.000000e+00	(-1.100056e-02 -1.100056e-02 0.000000e+00)	0	1.003268e+00	(-3.666854e-03 -3.666854e-03 2.491500e-01)	1
2.05478      	U            	0.000000e+00	(-1.100056e-02 -1.100056e-02 0.000000e+00)	0	9.978681e-01	(-3.666854e-03 -3.666854e-03 2.491500e-01)	1
2.06447      	U            	0.000000e+00	(-1.100056e-02 -1.100056e-02 0.000000e+00)	0	1.000818e+00	(-3.666854e-03 -3.666854e-03 2.590500e-01)	1
2.07415      	U            	0.000000e+00	(-1.100056e-02 -1.100056e-02 0.000000e+00)	0	1.014916e+00	(-3.666854e-03 0.000000e+00 5.940000e-02)	0
2.08383      	U            	0.000000e+00	(-1.100056e-02 -1.100056e-02 0.000000e+00)	0	1.013332e+00	(-3.666854e-03 0.000000e+00 7.095000e-02)	0
2.09351      	U            	0.000000e+00	(-1.100056e-02 -1.100056e-02 0.000000e+00)	0	1.021089e+00	(-3.666854e-03 0.000000e+00 8.085000e-02)	0
2.10319      	U            	0.000000e+00	(-1.100056e-02 -1.100056e-02 0.000000e+00)	0	1.015159e+00	(0.000000e+00 0.000000e+00 8.085000e-02)	0
2.11287      	U            	0.000000e+00	(-1.100056e-02 -1.100056e-02 0.000000e+00)	0	1.021288e+00	(0.000000e+00 0.000000e+00 9.075000e-02)	0
2.12255      	U            	0.000000e+00	(-1.100056e-02 -1.100056e-02 0.000000e+00)	0	1.026308e+00	(-3.666854e-03 0.000000e+00 1.006500e-01)	0
2.13223      	U            	0.000000e+00	(-1.100056e-02 -1.100056e-02 0.000000e+00)	0	1.018364e+00	(0.000000e+00 0.000000e+00 3.300000e-02)	0
2.14191      	U            	0.000000e+00	(-1.100056e-02 -1.100056e-02 0.000000e+00)	0	1.036330e+00	(0.000000e+00 0.000000e+00 4.620000e-02)	0
2.15159      	U            	0.000000e+00	(-1.100056e-02 -1.100056e-02 0.000000e+00)	0	1.036221e+00	(-3.666854e-03 0.000000e+00 4.620000e-02)	0
2.16128      	U            	0.000000e+00	(-1.100056e-02 -1.100056e-02 0.000000e+00)	0	1.054735e+00	(-3.666854e-03 0.000000e+00 5.940000e-02)	0
2.17096      	U            	0.000000e+00	(-1.100056e-02 -1.100056e-02 0.000000e+00)	0	1.058239e+00	(-3.666854e-03 0.000000e+00 7.095000e-02)	0
2.18064      	U            	0.000000e+00	(-1.100056e-02 -1.100056e-02 0.000000e+00)	0	1.066604e+00	(-3.666854e-03 0.000000e+00 8.085000e-02)	0
2.19032      	U            	0.000000e+00	(-1.100056e-02 -1.100056e-02 0.000000e+00)	0	1.049827e+00	(-3.666854e-03 0.000000e+00 9.075000e-02)	0
2.2          	U            	0.000000e+00	(-1.100056e-02 -1.100056e-02 0.000000e+00)	0	1.045181e+00	(-3.666854e-03 0.000000e+00 1.980000e-02)	0
2.20952      	U            	0.000000e+00	(-1.100056e-02 -1.100056e-02 0.000000e+00)	0	1.051556e+00	(0.000000e+00 0.000000e+00 1.006500e-01)	0
2.21905      	U            	0.000000e+00	(-1.100056e-02 -1.100056e-02 0.000000e+00)	0	1.055895e+00	(0.000000e+00 0.000000e+00 3.300000e-02)	0
2.22857      	U            	0.000000e+00	(-1.100056e-02 -1.100056e-02 0.000000e+00)	0	1.094320e+00	(-3.666854e-03 0.000000e+00 4.620000e-02)	0
2.2381       	U            	0.000000e+00	(-1.100056e-02 -1.100056e-02 0.000000e+00)	0	1.085014e+00	(-3.666854e-03 0.000000e+00 5.940000e-02)	0
2.24762      	U            	0.000000e+00	(-1.100056e-02 -1.100056e-02 0.000000e+00)	0	1.090767e+00	(-3.666854e-03 0.000000e+00 5.940000e-02)	0
2.25658      	U            	0.000000e+00	(-1.100056e-02 -1.100056e-02 0.000000e+00)	0	1.104948e+00	(0.000000e+00 0.000000e+00 7.095000e-02)	0
2.26555      	U            	0.000000e+00	(-1.100056e-02 -1.100056e-02 0.000000e+00)	0	1.099019e+00	(0.000000e+00 0.000000e+00 8.085000e-02)	0
2.27451      	U            	0.000000e+00	(-1.100056e-02 -1.100056e-02 0.000000e+00)	0	1.090577e+00	(-3.666854e-03 0.000000e+00 9.075000e-02)	0
2.28347      	U            	0.000000e+00	(-1.100056e-02 -1.100056e-02 0.000000e+00)	0	1.084446e+00	(-3.666854e-03 0.000000e+00 1.980000e-02)	0
2.29244      	U            	0.000000e+00	(-1.100056e-02 -1.100056e-02 0.000000e+00)	0	1.085944e+00	(-3.666854e-03 0.000000e+00 3.300000e-02)	0
2.3014       	U            	0.000000e+00	(-1.100056e-02 -1.100056e-02 0.000000e+00)	0	1.093751e+00	(-3.666854e-03 0.000000e+00 3.300000e-02)	0
2.31126      	U            	0.000000e+00	(-1.100056e-02 -1.100056e-02 0.000000e+00)	0	1.126893e+00	(-3.666854e-03 0.000000e+00 4.620000e-02)	0
2.32112      	U            	0.000000e+00	(-1.100056e-02 -1.100056e-02 0.000000e+00)	0	1.112369e+00	(-3.666854e-03 0.000000e+00 5.940000e-02)	0