# p  FACE_DATA 148
#  x  y  z  p
0 -12.27 -12.8848 1.441e+06
0 -11.5368 -12.727 1.42382e+06
0 -10.8036 -12.5692 1.42389e+06
0 -10.0704 -12.4115 1.41433e+06
0 -9.33718 -12.2537 1.39141e+06
0 -8.60396 -12.0959 1.37423e+06
0 -7.87075 -11.9381 1.3563e+06
0 -7.13754 -11.7803 1.33707e+06
0 -6.40432 -11.6225 1.31767e+06
0 -5.67111 -11.4647 1.29823e+06
0 -4.9379 -11.3069 1.27606e+06
0 -4.20469 -11.1491 1.2531e+06
0 -3.47147 -10.9913 1.22975e+06
0 -2.73826 -10.8335 1.2061e+06
0 -2.00505 -10.6757 1.18255e+06
0 -1.27183 -10.5179 1.16025e+06
0 -0.53862 -10.3602 1.14029e+06
0 0.194593 -10.2024 1.12088e+06
0 0.927806 -10.0446 1.09755e+06
0 1.66102 -9.88677 1.06796e+06
0 2.39423 -9.72898 1.0366e+06
0 3.12745 -9.57119 1.0074e+06
0 3.86066 -9.41339 980894
0 4.59387 -9.2556 956850
0 5.32708 -9.09781 935385
0 6.0603 -8.94002 913887
0 6.79351 -8.78222 892490
0 7.52672 -8.62443 872215
0 8.25994 -8.46664 849219
0 8.99315 -8.30884 825964
0 9.72636 -8.15105 822981
0 10.4596 -7.99326 822624
0 11.1928 -7.83547 815597
0 11.926 -7.67767 795138
0 12.6592 -7.51988 780042
0 13.3924 -7.36209 769766
0 14.1256 -7.2043 762193
0 14.8589 -7.0465 758016
0 15.5921 -6.88871 754665
0 16.3253 -6.73092 757075
0 17.0116 -6.15702 752168
0 17.6509 -5.16701 789749
0 18.2903 -4.177 810416
0 18.9296 -3.187 830988
0 19.569 -2.19699 852750
0 20.2083 -1.20698 874648
0 20.4294 -0.253723 900651
0 20.2322 0.662793 925719
0 20.0349 1.57931 933758
0 19.8377 2.49583 936402
0 19.6404 3.41234 938405
0 19.4432 4.32886 939169
0 19.246 5.24538 939820
0 19.0487 6.16189 937988
0 18.8515 7.07841 954696
0 18.6542 7.99492 968875
0 18.457 8.91144 977209
0 18.2598 9.82796 977099
0 18.0625 10.7445 977430
0 17.8653 11.661 977904
0 17.668 12.5775 978537
0 17.4708 13.494 979411
0 16.8772 14.272 979987
0 15.8872 14.9113 980674
0 14.8972 15.5507 982211
0 13.9071 16.19 982960
0 12.9171 16.8294 983478
0 11.9271 17.4687 983833
0 10.9371 18.1081 984053
0 9.94712 18.7474 984249
0 8.95711 19.3868 984674
0 7.96711 20.0262 985351
0 6.9771 20.6655 986168
0 5.98709 21.3049 987260
0 -13.8159 17.4693 994173
0 -13.327 17.5745 993610
0 -12.8382 17.6797 993412
0 -12.3494 17.7849 993224
0 -11.8606 17.8901 993007
0 -11.3718 17.9953 992787
0 -10.883 18.1005 992558
0 -10.3942 18.2057 992322
0 -9.90539 18.3109 992086
0 -9.41658 18.4161 991862
0 -8.92777 18.5213 991619
0 -8.43896 18.6265 991404
0 -7.95015 18.7317 991227
0 -7.46134 18.8369 991056
0 -6.97253 18.9421 990884
0 -6.48372 19.0473 990720
0 -5.99492 19.1525 990602
0 -5.50611 19.2577 990525
0 -5.0173 19.3629 990444
0 -4.52849 19.468 990367
0 -4.03968 19.5732 990270
0 -3.55087 19.6784 990153
0 -3.06206 19.7836 990010
0 -2.57326 19.8888 989849
0 -2.08445 19.994 989691
0 -1.59564 20.0992 989524
0 -1.10683 20.2044 989375
0 -0.61802 20.3096 989251
0 -0.129211 20.4148 989144
0 0.359597 20.52 989057
0 0.848406 20.6252 988904
0 1.33721 20.7304 988377
0 1.82602 20.8356 988291
0 2.31483 20.9408 988246
0 2.80364 21.046 988172
0 3.29245 21.1512 988109
0 3.78126 21.2564 987854
0 4.27007 21.3616 987746
0 4.75888 21.4668 987548
0 5.24768 21.572 987230
0 -21.4129 6.03167 1.00204e+06
0 -20.7735 7.02168 1.00116e+06
0 -20.1341 8.01168 1.00028e+06
0 -19.4948 9.00169 999244
0 -18.8554 9.99169 998371
0 -18.2161 10.9817 997710
0 -17.5767 11.9717 997167
0 -16.9374 12.9617 996679
0 -16.298 13.9517 996166
0 -15.6586 14.9417 995664
0 -15.0193 15.9317 995103
0 -14.3799 16.9217 994362
0 -18.6753 -8.66934 1.21264e+06
0 -18.8725 -7.75282 1.16598e+06
0 -19.0698 -6.83631 1.1294e+06
0 -19.267 -5.91979 1.09431e+06
0 -19.4643 -5.00327 1.06736e+06
0 -19.6615 -4.08676 1.0597e+06
0 -19.8587 -3.17024 1.05725e+06
0 -20.056 -2.25372 1.05412e+06
0 -20.2532 -1.33721 1.04676e+06
0 -20.4505 -0.420691 1.03673e+06
0 -20.6477 0.495825 1.02349e+06
0 -20.8449 1.41234 1.00681e+06
0 -21.0422 2.32886 1.00469e+06
0 -21.2394 3.24537 1.00421e+06
0 -21.4367 4.16189 1.00378e+06
0 -21.6339 5.07841 1.00303e+06
0 -13.1316 -12.6441 1.43859e+06
0 -14.1216 -12.0047 1.38517e+06
0 -15.1117 -11.3653 1.35289e+06
0 -16.1017 -10.726 1.32233e+06
0 -17.0917 -10.0866 1.29257e+06
0 -18.0817 -9.44727 1.26329e+06
