# p  FACE_DATA 148
#  x  y  z  p
0 -13.476 -11.374 1.25037e+06
0 -12.7302 -11.2951 1.23317e+06
0 -11.9843 -11.2163 1.21807e+06
0 -11.2385 -11.1374 1.20192e+06
0 -10.4926 -11.0586 1.18626e+06
0 -9.74679 -10.9797 1.17104e+06
0 -9.00095 -10.9008 1.15594e+06
0 -8.25511 -10.822 1.13943e+06
0 -7.50927 -10.7431 1.12348e+06
0 -6.76342 -10.6642 1.11048e+06
0 -6.01758 -10.5854 1.0927e+06
0 -5.27174 -10.5065 1.07444e+06
0 -4.5259 -10.4277 1.05741e+06
0 -3.78005 -10.3488 1.04101e+06
0 -3.03421 -10.2699 1.02481e+06
0 -2.28837 -10.1911 1.0103e+06
0 -1.54253 -10.1122 998892
0 -0.796685 -10.0334 988779
0 -0.0508429 -9.95449 971166
0 0.694999 -9.87563 945493
0 1.44084 -9.79677 920101
0 2.18668 -9.7179 900271
0 2.93253 -9.63904 882282
0 3.67837 -9.56018 867177
0 4.42421 -9.48132 856592
0 5.17005 -9.40246 853176
0 5.9159 -9.32359 852700
0 6.66174 -9.24473 851526
0 7.40758 -9.16587 852985
0 8.15342 -9.08701 859342
0 8.89927 -9.00815 867807
0 9.64511 -8.92929 874516
0 10.3909 -8.85042 879785
0 11.1368 -8.77156 885665
0 11.8826 -8.6927 895249
0 12.6285 -8.61384 906108
0 13.3743 -8.53498 914602
0 14.1202 -8.45611 921298
0 14.866 -8.37725 933441
0 15.6118 -8.29839 955094
0 16.3553 -7.80079 950709
0 17.0964 -6.88445 949088
0 17.8375 -5.96811 945383
0 18.5786 -5.05178 949154
0 19.3197 -4.13544 981580
0 20.0608 -3.2191 1.04418e+06
0 20.382 -2.29478 1.01081e+06
0 20.2834 -1.36248 995391
0 20.1849 -0.430174 986786
0 20.0863 0.502129 975131
0 19.9877 1.43443 956166
0 19.8891 2.36673 942514
0 19.7906 3.29904 933729
0 19.692 4.23134 929996
0 19.5934 5.16364 931780
0 19.4948 6.09595 942742
0 19.3962 7.02825 958307
0 19.2977 7.96055 969182
0 19.1991 8.89286 967442
0 19.1005 9.82516 977510
0 19.0019 10.7575 988046
0 18.9034 11.6898 982579
0 18.3959 12.5265 973493
0 17.4796 13.2675 970852
0 16.5632 14.0086 971503
0 15.6469 14.7497 972301
0 14.7305 15.4908 973954
0 13.8142 16.2319 974329
0 12.8979 16.973 974615
0 11.9815 17.7141 975148
0 11.0652 18.4552 975559
0 10.1489 19.1963 976037
0 9.23252 19.9374 976535
0 8.31618 20.6784 977143
0 -11.7825 18.9723 983174
0 -11.2853 19.0249 983525
0 -10.788 19.0774 982311
0 -10.2908 19.13 980464
0 -9.79359 19.1826 981098
0 -9.29636 19.2352 981153
0 -8.79914 19.2877 981035
0 -8.30191 19.3403 980555
0 -7.80468 19.3929 979171
0 -7.30745 19.4455 978818
0 -6.81022 19.498 978960
0 -6.31299 19.5506 978757
0 -5.81577 19.6032 978473
0 -5.31854 19.6558 978217
0 -4.82131 19.7083 978088
0 -4.32408 19.7609 978047
0 -3.82685 19.8135 978052
0 -3.32962 19.8661 978096
0 -2.8324 19.9186 978175
0 -2.33517 19.9712 978265
0 -1.83794 20.0238 978334
0 -1.34071 20.0764 978362
0 -0.843483 20.1289 978339
0 -0.346255 20.1815 978276
0 0.150973 20.2341 978197
0 0.648201 20.2867 978143
0 1.14543 20.3392 978064
0 1.64266 20.3918 977977
0 2.13989 20.4444 977895
0 2.63711 20.497 977806
0 3.13434 20.5495 977702
0 3.63157 20.6021 977572
0 4.1288 20.6547 977474
0 4.62603 20.7073 977404
0 5.12326 20.7598 977377
0 5.62048 20.8124 977327
0 6.11771 20.865 977387
0 6.61494 20.9176 977338
0 7.11217 20.9701 977182
0 7.6094 21.0227 977069
0 -20.5536 8.40812 993688
0 -19.8126 9.32446 990817
0 -19.0715 10.2408 988596
0 -18.3304 11.1571 985794
0 -17.5893 12.0735 983685
0 -16.8482 12.9898 983227
0 -16.1071 13.9061 981804
0 -15.366 14.8225 981591
0 -14.6249 15.7388 982665
0 -13.8838 16.6552 982636
0 -13.1428 17.5715 984598
0 -12.4017 18.4878 983228
0 -19.3962 -6.50075 1.098e+06
0 -19.4948 -5.56844 1.09171e+06
0 -19.5934 -4.63614 1.08944e+06
0 -19.692 -3.70384 1.08778e+06
0 -19.7906 -2.77153 1.08713e+06
0 -19.8891 -1.83923 1.08367e+06
0 -19.9877 -0.906929 1.0781e+06
0 -20.0863 0.0253744 1.07257e+06
0 -20.1849 0.957677 1.08826e+06
0 -20.2834 1.88998 1.09337e+06
0 -20.382 2.82228 1.07927e+06
0 -20.4806 3.75459 1.06061e+06
0 -20.5792 4.68689 1.04361e+06
0 -20.6777 5.61919 1.02379e+06
0 -20.7763 6.55149 1.00995e+06
0 -20.8749 7.4838 999628
0 -14.3071 -11.0429 1.24705e+06
0 -15.2234 -10.3018 1.23018e+06
0 -16.1398 -9.56071 1.19085e+06
0 -17.0561 -8.81962 1.15647e+06
0 -17.9724 -8.07853 1.12944e+06
0 -18.8888 -7.33744 1.10926e+06
