# p  FACE_DATA 148
#  x  y  z  p
0 -12.8112 -12.2586 1.36628e+06
0 -12.0719 -12.1321 1.34352e+06
0 -11.3326 -12.0056 1.33339e+06
0 -10.5934 -11.8792 1.32075e+06
0 -9.85411 -11.7527 1.30532e+06
0 -9.11485 -11.6263 1.28981e+06
0 -8.37558 -11.4998 1.27045e+06
0 -7.63632 -11.3734 1.24267e+06
0 -6.89706 -11.2469 1.22011e+06
0 -6.1578 -11.1204 1.20382e+06
0 -5.41854 -10.994 1.19287e+06
0 -4.67927 -10.8675 1.17265e+06
0 -3.94001 -10.7411 1.15009e+06
0 -3.20075 -10.6146 1.1278e+06
0 -2.46149 -10.4881 1.10567e+06
0 -1.72223 -10.3617 1.08424e+06
0 -0.982964 -10.2352 1.06763e+06
0 -0.243702 -10.1088 1.05401e+06
0 0.495559 -9.98231 1.03361e+06
0 1.23482 -9.85585 1.0044e+06
0 1.97408 -9.72939 973172
0 2.71335 -9.60293 947283
0 3.45261 -9.47647 926641
0 4.19187 -9.35001 904119
0 4.93113 -9.22355 885152
0 5.67039 -9.09709 867961
0 6.40965 -8.97064 850418
0 7.14892 -8.84418 830788
0 7.88818 -8.71772 824411
0 8.62744 -8.59126 825180
0 9.3667 -8.4648 821360
0 10.106 -8.33834 812799
0 10.8452 -8.21188 809550
0 11.5845 -8.08542 810606
0 12.3237 -7.95896 814029
0 13.063 -7.83251 818812
0 13.8023 -7.70605 822886
0 14.5415 -7.57959 827143
0 15.2808 -7.45313 833443
0 16.0201 -7.32667 842885
0 16.7301 -6.78249 837859
0 17.411 -5.82057 853508
0 18.0919 -4.85866 867612
0 18.7728 -3.89675 886073
0 19.4537 -2.93484 911108
0 20.1346 -1.97293 941396
0 20.396 -1.02993 964798
0 20.2379 -0.105853 971814
0 20.0799 0.818224 971932
0 19.9218 1.7423 972233
0 19.7637 2.66638 972374
0 19.6056 3.59046 972473
0 19.4476 4.51453 972603
0 19.2895 5.43861 972756
0 19.1314 6.36269 972928
0 18.9733 7.28677 973119
0 18.8153 8.21084 973336
0 18.6572 9.13492 973594
0 18.4991 10.059 973912
0 18.3411 10.9831 974272
0 18.183 11.9072 974581
0 18.0249 12.8312 974852
0 17.4649 13.6337 975277
0 16.503 14.3146 975691
0 15.5411 14.9955 976022
0 14.5792 15.6764 976314
0 13.6173 16.3573 976575
0 12.6554 17.0382 976848
0 11.6934 17.7191 977128
0 10.7315 18.4 977452
0 9.76961 19.0809 977889
0 8.8077 19.7617 978418
0 7.84579 20.4426 978875
0 6.88388 21.1235 979608
0 -13.0643 18.1339 986291
0 -12.5715 18.2182 985958
0 -12.0786 18.3025 985783
0 -11.5858 18.3868 985581
0 -11.0929 18.4711 985357
0 -10.6001 18.5554 985123
0 -10.1073 18.6397 984864
0 -9.61442 18.724 984566
0 -9.12158 18.8083 984342
0 -8.62874 18.8926 984171
0 -8.13589 18.977 983999
0 -7.64305 19.0613 983833
0 -7.15021 19.1456 983676
0 -6.65737 19.2299 983530
0 -6.16453 19.3142 983392
0 -5.67169 19.3985 983252
0 -5.17885 19.4828 983114
0 -4.68601 19.5671 982993
0 -4.19316 19.6514 982818
0 -3.70032 19.7357 982648
0 -3.20748 19.82 982519
0 -2.71464 19.9043 982394
0 -2.2218 19.9886 982259
0 -1.72896 20.0729 982115
0 -1.23612 20.1572 981967
0 -0.743275 20.2415 981817
0 -0.250434 20.3258 981667
0 0.242407 20.4102 981521
0 0.735249 20.4945 981382
0 1.22809 20.5788 981243
0 1.72093 20.6631 981113
0 2.21377 20.7474 980994
0 2.70661 20.8317 980835
0 3.19945 20.916 980655
0 3.6923 21.0003 980482
0 4.18514 21.0846 980302
0 4.67798 21.1689 980117
0 5.17082 21.2532 979933
0 5.66366 21.3375 979762
0 6.1565 21.4218 979539
0 -21.141 7.02975 995588
0 -20.4601 7.99166 994188
0 -19.7792 8.95358 992718
0 -19.0983 9.91549 991512
0 -18.4174 10.8774 990388
0 -17.7365 11.8393 989564
0 -17.0556 12.8012 988923
0 -16.3747 13.7631 988316
0 -15.6939 14.725 987795
0 -15.013 15.687 987364
0 -14.3321 16.6489 986955
0 -13.6512 17.6108 986440
0 -19.0313 -7.7744 1.19137e+06
0 -19.1894 -6.85033 1.15587e+06
0 -19.3474 -5.92625 1.12699e+06
0 -19.5055 -5.00217 1.10192e+06
0 -19.6636 -4.07809 1.07768e+06
0 -19.8217 -3.15402 1.05353e+06
0 -19.9797 -2.22994 1.03472e+06
0 -20.1378 -1.30586 1.02326e+06
0 -20.2959 -0.381784 1.01664e+06
0 -20.454 0.542293 1.00935e+06
0 -20.612 1.46637 999471
0 -20.7701 2.39045 997692
0 -20.9282 3.31453 997417
0 -21.0863 4.2386 997389
0 -21.2443 5.16268 997271
0 -21.4024 6.08676 996565
0 -13.6617 -11.9813 1.36348e+06
0 -14.6237 -11.3005 1.32805e+06
0 -15.5856 -10.6196 1.29757e+06
0 -16.5475 -9.93867 1.26667e+06
0 -17.5094 -9.25778 1.24171e+06
0 -18.4713 -8.57689 1.22184e+06
