# p  FACE_DATA 148
#  x  y  z  p
0 -12.8903 -12.2273 1.21672e+06
0 -12.15 -12.1071 1.20766e+06
0 -11.4097 -11.9869 1.20401e+06
0 -10.6694 -11.8667 1.19879e+06
0 -9.9291 -11.7465 1.19257e+06
0 -9.18879 -11.6263 1.18507e+06
0 -8.44849 -11.5061 1.17665e+06
0 -7.70819 -11.3859 1.16759e+06
0 -6.96788 -11.2656 1.15798e+06
0 -6.22758 -11.1454 1.1482e+06
0 -5.48728 -11.0252 1.13843e+06
0 -4.74697 -10.905 1.12857e+06
0 -4.00667 -10.7848 1.11841e+06
0 -3.26636 -10.6646 1.1078e+06
0 -2.52606 -10.5444 1.09725e+06
0 -1.78576 -10.4242 1.08804e+06
0 -1.04545 -10.304 1.0802e+06
0 -0.30515 -10.1838 1.0698e+06
0 0.435154 -10.0635 1.05551e+06
0 1.17546 -9.94334 1.0398e+06
0 1.91576 -9.82313 1.02531e+06
0 2.65606 -9.70292 1.01366e+06
0 3.39637 -9.58271 1.00421e+06
0 4.13667 -9.4625 996573
0 4.87698 -9.34229 990563
0 5.61728 -9.22208 984346
0 6.35758 -9.10187 977846
0 7.09789 -8.98166 971841
0 7.83819 -8.86145 966722
0 8.57849 -8.74124 962225
0 9.3188 -8.62103 957588
0 10.0591 -8.50082 952914
0 10.7994 -8.38061 949757
0 11.5397 -8.2604 948674
0 12.28 -8.14019 948675
0 13.0203 -8.01998 948920
0 13.7606 -7.89977 948849
0 14.5009 -7.77956 949637
0 15.2412 -7.65935 953599
0 15.9815 -7.53914 959612
0 16.6962 -7.00097 954184
0 17.3852 -6.04485 955472
0 18.0742 -5.08872 956687
0 18.7632 -4.13259 961859
0 19.4522 -3.17647 974409
0 20.1411 -2.22034 992664
0 20.4105 -1.27959 998019
0 20.2602 -0.35421 999879
0 20.11 0.57117 1.00179e+06
0 19.9597 1.49655 1.00089e+06
0 19.8095 2.42193 1.00063e+06
0 19.6592 3.34731 1.0006e+06
0 19.5089 4.27269 1.00058e+06
0 19.3587 5.19807 1.00056e+06
0 19.2084 6.12345 1.00054e+06
0 19.0582 7.04883 1.00053e+06
0 18.9079 7.97421 1.00053e+06
0 18.7576 8.89959 1.00054e+06
0 18.6074 9.82497 1.00058e+06
0 18.4571 10.7503 1.00066e+06
0 18.3068 11.6757 1.00072e+06
0 18.1566 12.6011 1.00075e+06
0 17.6034 13.4083 1.00085e+06
0 16.6473 14.0973 1.00094e+06
0 15.6911 14.7863 1.00104e+06
0 14.735 15.4753 1.00107e+06
0 13.7789 16.1643 1.00104e+06
0 12.8228 16.8533 1.00099e+06
0 11.8666 17.5423 1.00098e+06
0 10.9105 18.2312 1.00101e+06
0 9.95437 18.9202 1.00109e+06
0 8.99825 19.6092 1.00124e+06
0 8.04212 20.2982 1.00143e+06
0 7.08599 20.9872 1.00157e+06
0 -12.8867 18.1662 1.00364e+06
0 -12.3932 18.2463 1.00353e+06
0 -11.8997 18.3265 1.00343e+06
0 -11.4061 18.4066 1.00332e+06
0 -10.9126 18.4867 1.00319e+06
0 -10.4191 18.5669 1.00306e+06
0 -9.92552 18.647 1.00295e+06
0 -9.43198 18.7272 1.00284e+06
0 -8.93845 18.8073 1.00273e+06
0 -8.44491 18.8874 1.00263e+06
0 -7.95138 18.9676 1.00253e+06
0 -7.45784 19.0477 1.00243e+06
0 -6.9643 19.1279 1.00234e+06
0 -6.47077 19.208 1.00226e+06
0 -5.97723 19.2881 1.00219e+06
0 -5.4837 19.3683 1.00212e+06
0 -4.99016 19.4484 1.00206e+06
0 -4.49662 19.5286 1.00201e+06
0 -4.00309 19.6087 1.00196e+06
0 -3.50955 19.6888 1.00193e+06
0 -3.01602 19.769 1.0019e+06
0 -2.52248 19.8491 1.00188e+06
0 -2.02895 19.9293 1.00187e+06
0 -1.53541 20.0094 1.00187e+06
0 -1.04187 20.0895 1.00187e+06
0 -0.548338 20.1697 1.00187e+06
0 -0.054802 20.2498 1.00186e+06
0 0.438734 20.33 1.00185e+06
0 0.93227 20.4101 1.00182e+06
0 1.42581 20.4902 1.00181e+06
0 1.91934 20.5704 1.0018e+06
0 2.41288 20.6505 1.00179e+06
0 2.90641 20.7307 1.00177e+06
0 3.39995 20.8108 1.00176e+06
0 3.89348 20.8909 1.00174e+06
0 4.38702 20.9711 1.00171e+06
0 4.88056 21.0512 1.00168e+06
0 5.37409 21.1314 1.00163e+06
0 5.86763 21.2115 1.00159e+06
0 6.36116 21.2916 1.00154e+06
0 -21.0569 7.13067 1.00755e+06
0 -20.3679 8.08679 1.007e+06
0 -19.6789 9.04292 1.00647e+06
0 -18.9899 9.99904 1.006e+06
0 -18.3009 10.9552 1.00561e+06
0 -17.612 11.9113 1.00528e+06
0 -16.923 12.8674 1.00498e+06
0 -16.234 13.8235 1.00471e+06
0 -15.545 14.7797 1.00446e+06
0 -14.856 15.7358 1.00421e+06
0 -14.167 16.6919 1.00397e+06
0 -13.478 17.6481 1.0037e+06
0 -19.0724 -7.69078 1.02911e+06
0 -19.2226 -6.7654 1.01704e+06
0 -19.3729 -5.84002 1.01395e+06
0 -19.5231 -4.91464 1.0133e+06
0 -19.6734 -3.98926 1.01281e+06
0 -19.8237 -3.06388 1.01223e+06
0 -19.9739 -2.1385 1.01167e+06
0 -20.1242 -1.21312 1.01116e+06
0 -20.2745 -0.287745 1.01068e+06
0 -20.4247 0.637635 1.01023e+06
0 -20.575 1.56301 1.0098e+06
0 -20.7252 2.48839 1.00939e+06
0 -20.8755 3.41377 1.009e+06
0 -21.0258 4.33915 1.00863e+06
0 -21.176 5.26453 1.00828e+06
0 -21.3263 6.18991 1.00794e+06
0 -13.7385 -11.9429 1.21386e+06
0 -14.6947 -11.2539 1.18687e+06
0 -15.6508 -10.5649 1.15873e+06
0 -16.6069 -9.87595 1.12866e+06
0 -17.563 -9.18696 1.09702e+06
0 -18.5192 -8.49797 1.06241e+06
