# p  FACE_DATA 148
#  x  y  z  p
0 -15.2289 -8.99781 1.09161e+06
0 -14.4808 -9.05005 1.06842e+06
0 -13.7326 -9.10229 1.05792e+06
0 -12.9844 -9.15453 1.0486e+06
0 -12.2362 -9.20677 1.03718e+06
0 -11.488 -9.25901 1.02545e+06
0 -10.7399 -9.31125 1.01549e+06
0 -9.99169 -9.36349 1.00693e+06
0 -9.24351 -9.41573 999093
0 -8.49533 -9.46797 993550
0 -7.74716 -9.52021 989788
0 -6.99898 -9.57245 984490
0 -6.2508 -9.62469 977436
0 -5.50262 -9.67693 973801
0 -4.75444 -9.72917 973829
0 -4.00626 -9.78141 976065
0 -3.25809 -9.83365 984015
0 -2.50991 -9.88589 997390
0 -1.76173 -9.93813 1.00992e+06
0 -1.01355 -9.99037 1.01464e+06
0 -0.265371 -10.0426 1.01132e+06
0 0.482807 -10.0949 1.00833e+06
0 1.23099 -10.1471 1.0101e+06
0 1.97916 -10.1993 1.01302e+06
0 2.72734 -10.2516 1.01656e+06
0 3.47552 -10.3038 1.02097e+06
0 4.2237 -10.3561 1.02583e+06
0 4.97188 -10.4083 1.03103e+06
0 5.72006 -10.4605 1.03623e+06
0 6.46823 -10.5128 1.04162e+06
0 7.21641 -10.565 1.04758e+06
0 7.96459 -10.6173 1.05435e+06
0 8.71277 -10.6695 1.06182e+06
0 9.46095 -10.7217 1.06998e+06
0 10.2091 -10.774 1.07968e+06
0 10.9573 -10.8262 1.09065e+06
0 11.7055 -10.8785 1.1034e+06
0 12.4537 -10.9307 1.11532e+06
0 13.2018 -10.9829 1.12552e+06
0 13.95 -11.0352 1.14098e+06
0 14.7688 -10.6747 1.13742e+06
0 15.6581 -9.9014 1.13407e+06
0 16.5475 -9.12814 1.11533e+06
0 17.4368 -8.35487 1.10121e+06
0 18.3262 -7.58161 1.09457e+06
0 19.2156 -6.80834 1.08969e+06
0 19.6929 -5.9541 1.0876e+06
0 19.7582 -5.01887 1.08029e+06
0 19.8235 -4.08365 1.06339e+06
0 19.8888 -3.14843 1.04197e+06
0 19.9541 -2.21321 1.02189e+06
0 20.0194 -1.27798 1.00516e+06
0 20.0847 -0.342759 993164
0 20.15 0.592464 987252
0 20.2153 1.52769 986368
0 20.2806 2.46291 990921
0 20.3459 3.39813 991664
0 20.4112 4.33336 990842
0 20.4765 5.26858 990610
0 20.5418 6.2038 990454
0 20.6071 7.13902 990129
0 20.6724 8.07425 989869
0 20.3184 8.98654 989875
0 19.5451 9.87589 989844
0 18.7719 10.7652 989678
0 17.9986 11.6546 989534
0 17.2253 12.544 989487
0 16.4521 13.4333 989560
0 15.6788 14.3227 989663
0 14.9055 15.212 989776
0 14.1323 16.1014 989851
0 13.359 16.9907 989848
0 12.5858 17.8801 989772
0 11.8125 18.7694 989818
0 -8.27617 20.5898 990943
0 -7.77739 20.5549 990850
0 -7.2786 20.5201 990797
0 -6.77982 20.4853 990711
0 -6.28103 20.4505 990635
0 -5.78225 20.4156 990586
0 -5.28346 20.3808 990564
0 -4.78468 20.346 990506
0 -4.28589 20.3112 990347
0 -3.7871 20.2763 990016
0 -3.28832 20.2415 989687
0 -2.78953 20.2067 989607
0 -2.29075 20.1718 989457
0 -1.79196 20.137 989318
0 -1.29318 20.1022 989188
0 -0.79439 20.0674 989077
0 -0.295604 20.0325 988981
0 0.203181 19.9977 988924
0 0.701967 19.9629 988901
0 1.20075 19.9281 988892
0 1.69954 19.8932 988915
0 2.19832 19.8584 988949
0 2.69711 19.8236 988864
0 3.19589 19.7887 988748
0 3.69468 19.7539 988874
0 4.19347 19.7191 988947
0 4.69225 19.6843 988968
0 5.19104 19.6494 989032
0 5.68982 19.6146 989109
0 6.18861 19.5798 989170
0 6.68739 19.545 989240
0 7.18618 19.5101 989318
0 7.68497 19.4753 989395
0 8.18375 19.4405 989464
0 8.68254 19.4057 989415
0 9.18132 19.3708 989576
0 9.68011 19.336 989778
0 10.1789 19.3012 989670
0 10.6777 19.2663 989659
0 11.1765 19.2315 989766
0 -18.7531 11.7146 991623
0 -17.8638 12.4879 991359
0 -16.9744 13.2612 991142
0 -16.0851 14.0344 990951
0 -15.1957 14.8077 990796
0 -14.3064 15.581 990633
0 -13.417 16.3542 990455
0 -12.5277 17.1275 990367
0 -11.6383 17.9008 990392
0 -10.749 18.674 990536
0 -9.8596 19.4473 990922
0 -8.97024 20.2205 991068
0 -20.21 -3.16796 1.08806e+06
0 -20.1447 -2.23273 1.06932e+06
0 -20.0794 -1.29751 1.05452e+06
0 -20.0141 -0.362287 1.04716e+06
0 -19.9488 0.572936 1.03688e+06
0 -19.8835 1.50816 1.02309e+06
0 -19.8182 2.44338 993828
0 -19.7529 3.3786 989989
0 -19.6876 4.31383 989969
0 -19.6223 5.24905 989173
0 -19.557 6.18427 990243
0 -19.4917 7.1195 992483
0 -19.4264 8.05472 994048
0 -19.3611 8.98994 994599
0 -19.2958 9.92517 992852
0 -19.2305 10.8604 992092
0 -15.9897 -8.52701 1.08686e+06
0 -16.7629 -7.63766 1.07193e+06
0 -17.5362 -6.74831 1.0621e+06
0 -18.3095 -5.85895 1.06113e+06
0 -19.0827 -4.9696 1.07621e+06
0 -19.856 -4.08025 1.09977e+06
