# p  FACE_DATA 148
#  x  y  z  p
0 -15.1867 -9.26179 1.09521e+06
0 -14.4381 -9.30634 1.08068e+06
0 -13.6894 -9.35089 1.07301e+06
0 -12.9407 -9.39545 1.06687e+06
0 -12.192 -9.44 1.05965e+06
0 -11.4434 -9.48456 1.05121e+06
0 -10.6947 -9.52911 1.04313e+06
0 -9.94602 -9.57366 1.03752e+06
0 -9.19734 -9.61822 1.03444e+06
0 -8.44867 -9.66277 1.03168e+06
0 -7.69999 -9.70733 1.02846e+06
0 -6.95132 -9.75188 1.02606e+06
0 -6.20264 -9.79644 1.02472e+06
0 -5.45397 -9.84099 1.02386e+06
0 -4.70529 -9.88554 1.02378e+06
0 -3.95662 -9.9301 1.02439e+06
0 -3.20794 -9.97465 1.02559e+06
0 -2.45926 -10.0192 1.02772e+06
0 -1.71059 -10.0638 1.03061e+06
0 -0.961914 -10.1083 1.03423e+06
0 -0.213238 -10.1529 1.03833e+06
0 0.535437 -10.1974 1.04299e+06
0 1.28411 -10.242 1.04835e+06
0 2.03279 -10.2865 1.05357e+06
0 2.78146 -10.3311 1.0578e+06
0 3.53014 -10.3756 1.0615e+06
0 4.27881 -10.4202 1.06562e+06
0 5.02749 -10.4647 1.07063e+06
0 5.77617 -10.5093 1.07656e+06
0 6.52484 -10.5539 1.08314e+06
0 7.27352 -10.5984 1.09015e+06
0 8.02219 -10.643 1.09756e+06
0 8.77087 -10.6875 1.10558e+06
0 9.51954 -10.7321 1.11398e+06
0 10.2682 -10.7766 1.12298e+06
0 11.0169 -10.8212 1.13256e+06
0 11.7656 -10.8657 1.14277e+06
0 12.5142 -10.9103 1.15297e+06
0 13.2629 -10.9548 1.16162e+06
0 14.0116 -10.9994 1.17059e+06
0 14.8266 -10.6305 1.16687e+06
0 15.708 -9.84814 1.16748e+06
0 16.5893 -9.06578 1.14981e+06
0 17.4707 -8.28342 1.1347e+06
0 18.3521 -7.50107 1.12528e+06
0 19.2334 -6.71871 1.11616e+06
0 19.702 -5.85961 1.1076e+06
0 19.7577 -4.92376 1.09027e+06
0 19.8134 -3.98792 1.06603e+06
0 19.8691 -3.05208 1.04206e+06
0 19.9247 -2.11623 1.02139e+06
0 19.9804 -1.18039 1.00758e+06
0 20.0361 -0.244542 1.00577e+06
0 20.0918 0.691302 1.00563e+06
0 20.1475 1.62715 1.00547e+06
0 20.2032 2.56299 1.00531e+06
0 20.2589 3.49883 1.00517e+06
0 20.3146 4.43468 1.00506e+06
0 20.3703 5.37052 1.00498e+06
0 20.426 6.30637 1.00493e+06
0 20.4817 7.24221 1.00491e+06
0 20.5374 8.17806 1.00491e+06
0 20.174 9.08666 1.00489e+06
0 19.3917 9.96803 1.00447e+06
0 18.6093 10.8494 1.00405e+06
0 17.827 11.7308 1.00376e+06
0 17.0446 12.6121 1.00356e+06
0 16.2622 13.4935 1.00341e+06
0 15.4799 14.3749 1.00329e+06
0 14.6975 15.2562 1.00319e+06
0 13.9152 16.1376 1.00311e+06
0 13.1328 17.019 1.00306e+06
0 12.3505 17.9003 1.00302e+06
0 11.5681 18.7817 1.00303e+06
0 -8.53819 20.3956 1.00245e+06
0 -8.03908 20.3659 1.00242e+06
0 -7.53996 20.3362 1.00238e+06
0 -7.04084 20.3065 1.00234e+06
0 -6.54173 20.2768 1.00229e+06
0 -6.04261 20.2471 1.00224e+06
0 -5.54349 20.2174 1.00219e+06
0 -5.04437 20.1877 1.00215e+06
0 -4.54526 20.158 1.0021e+06
0 -4.04614 20.1283 1.00206e+06
0 -3.54702 20.0986 1.00203e+06
0 -3.04791 20.0689 1.002e+06
0 -2.54879 20.0392 1.00197e+06
0 -2.04967 20.0095 1.00195e+06
0 -1.55056 19.9798 1.00193e+06
0 -1.05144 19.9501 1.0019e+06
0 -0.552322 19.9204 1.00189e+06
0 -0.053205 19.8907 1.00187e+06
0 0.445912 19.861 1.00186e+06
0 0.945029 19.8313 1.00185e+06
0 1.44415 19.8016 1.00185e+06
0 1.94326 19.7719 1.00186e+06
0 2.44238 19.7422 1.00188e+06
0 2.9415 19.7125 1.00191e+06
0 3.44061 19.6828 1.00194e+06
0 3.93973 19.6531 1.00197e+06
0 4.43885 19.6234 1.00202e+06
0 4.93796 19.5937 1.00207e+06
0 5.43708 19.564 1.00213e+06
0 5.9362 19.5343 1.00219e+06
0 6.43532 19.5045 1.00227e+06
0 6.93443 19.4748 1.00235e+06
0 7.43355 19.4451 1.00244e+06
0 7.93267 19.4154 1.00253e+06
0 8.43178 19.3857 1.00262e+06
0 8.9309 19.356 1.00273e+06
0 9.43002 19.3263 1.00283e+06
0 9.92913 19.2966 1.00292e+06
0 10.4283 19.2669 1.00297e+06
0 10.9274 19.2372 1.00298e+06
0 -18.9235 11.4134 1.00308e+06
0 -18.0421 12.1957 1.00298e+06
0 -17.1607 12.9781 1.0029e+06
0 -16.2794 13.7604 1.0028e+06
0 -15.398 14.5428 1.00264e+06
0 -14.5166 15.3252 1.00249e+06
0 -13.6353 16.1075 1.00239e+06
0 -12.7539 16.8899 1.00237e+06
0 -11.8725 17.6722 1.00233e+06
0 -10.9912 18.4546 1.00242e+06
0 -10.1098 19.2369 1.00259e+06
0 -9.22844 20.0193 1.0025e+06
0 -20.2274 -3.48339 1.06841e+06
0 -20.1717 -2.54755 1.05247e+06
0 -20.116 -1.6117 1.03828e+06
0 -20.0603 -0.675857 1.02623e+06
0 -20.0046 0.259987 1.01621e+06
0 -19.9489 1.19583 1.00802e+06
0 -19.8932 2.13168 1.00378e+06
0 -19.8375 3.06752 1.00348e+06
0 -19.7818 4.00336 1.00345e+06
0 -19.7261 4.93921 1.00339e+06
0 -19.6705 5.87505 1.00334e+06
0 -19.6148 6.8109 1.00329e+06
0 -19.5591 7.74674 1.00329e+06
0 -19.5034 8.68259 1.00333e+06
0 -19.4477 9.61843 1.00334e+06
0 -19.392 10.5543 1.00323e+06
0 -15.9523 -8.79883 1.09054e+06
0 -16.7346 -7.91746 1.0784e+06
0 -17.517 -7.03609 1.06997e+06
0 -18.2993 -6.15473 1.06668e+06
0 -19.0817 -5.27336 1.07184e+06
0 -19.864 -4.392 1.08098e+06
