# p  FACE_DATA 148
#  x  y  z  p
0 -12.2548 -12.8924 1.55073e+06
0 -11.5219 -12.7328 1.53648e+06
0 -10.7891 -12.5733 1.53398e+06
0 -10.0563 -12.4137 1.51937e+06
0 -9.32345 -12.2541 1.50429e+06
0 -8.59063 -12.0945 1.48925e+06
0 -7.8578 -11.9349 1.46915e+06
0 -7.12497 -11.7754 1.44492e+06
0 -6.39215 -11.6158 1.41687e+06
0 -5.65932 -11.4562 1.38885e+06
0 -4.9265 -11.2966 1.36171e+06
0 -4.19367 -11.137 1.33322e+06
0 -3.46084 -10.9775 1.30321e+06
0 -2.72802 -10.8179 1.2736e+06
0 -1.99519 -10.6583 1.24714e+06
0 -1.26237 -10.4987 1.22479e+06
0 -0.529539 -10.3391 1.20151e+06
0 0.203287 -10.1796 1.17181e+06
0 0.936113 -10.02 1.13614e+06
0 1.66894 -9.8604 1.10016e+06
0 2.40177 -9.70082 1.06746e+06
0 3.13459 -9.54124 1.04109e+06
0 3.86742 -9.38166 1.01432e+06
0 4.60024 -9.22208 982908
0 5.33307 -9.0625 954056
0 6.0659 -8.90292 926373
0 6.79872 -8.74334 900178
0 7.53155 -8.58376 877658
0 8.26437 -8.42418 857372
0 8.9972 -8.2646 834834
0 9.73003 -8.10502 812758
0 10.4629 -7.94544 793843
0 11.1957 -7.78586 776425
0 11.9285 -7.62628 758885
0 12.6613 -7.4667 743170
0 13.3942 -7.30712 729931
0 14.127 -7.14754 722834
0 14.8598 -6.98796 715298
0 15.5926 -6.82838 709804
0 16.3255 -6.6688 704484
0 17.0103 -6.09323 699063
0 17.6473 -5.10166 751899
0 18.2842 -4.1101 763076
0 18.9212 -3.11854 787746
0 19.5581 -2.12698 805620
0 20.195 -1.13541 832534
0 20.4138 -0.181617 873692
0 20.2143 0.734416 888256
0 20.0148 1.65045 914371
0 19.8154 2.56648 933519
0 19.6159 3.48251 943942
0 19.4164 4.39855 950214
0 19.2169 5.31458 958465
0 19.0175 6.23061 961683
0 18.818 7.14664 962781
0 18.6185 8.06268 963029
0 18.419 8.97871 963016
0 18.2195 9.89474 963240
0 18.0201 10.8108 965220
0 17.8206 11.7268 967958
0 17.6211 12.6428 969824
0 17.4216 13.5589 970566
0 16.8261 14.3354 974343
0 15.8346 14.9723 977699
0 14.843 15.6092 977462
0 13.8514 16.2462 977569
0 12.8599 16.8831 977875
0 11.8683 17.5201 978245
0 10.8768 18.157 978632
0 9.88519 18.7939 978989
0 8.89363 19.4309 979342
0 7.90207 20.0678 979871
0 6.9105 20.7048 980122
0 5.91894 21.3417 981252
0 -13.8746 17.4579 984416
0 -13.386 17.5643 984024
0 -12.8975 17.6707 983759
0 -12.4089 17.7771 983405
0 -11.9204 17.8834 983154
0 -11.4318 17.9898 983165
0 -10.9433 18.0962 983196
0 -10.4547 18.2026 983215
0 -9.96619 18.309 982147
0 -9.47764 18.4154 980598
0 -8.98909 18.5218 981670
0 -8.50054 18.6281 982029
0 -8.01199 18.7345 982174
0 -7.52344 18.8409 982359
0 -7.03489 18.9473 982560
0 -6.54633 19.0537 982724
0 -6.05778 19.1601 982833
0 -5.56923 19.2665 982903
0 -5.08068 19.3729 982970
0 -4.59213 19.4792 983056
0 -4.10358 19.5856 983164
0 -3.61503 19.692 983166
0 -3.12648 19.7984 983603
0 -2.63793 19.9048 983833
0 -2.14938 20.0112 983878
0 -1.66083 20.1176 983850
0 -1.17228 20.2239 983767
0 -0.683725 20.3303 983616
0 -0.195174 20.4367 983440
0 0.293376 20.5431 983263
0 0.781927 20.6495 983093
0 1.27048 20.7559 982940
0 1.75903 20.8623 982804
0 2.24758 20.9687 982685
0 2.73613 21.075 982564
0 3.22468 21.1814 982394
0 3.71323 21.2878 982178
0 4.20178 21.3942 981945
0 4.69033 21.5006 981804
0 5.17888 21.607 981190
0 -21.4437 6.00173 1.00578e+06
0 -20.8067 6.99329 1.00356e+06
0 -20.1698 7.98485 999612
0 -19.5329 8.97641 1.00188e+06
0 -18.8959 9.96798 1.00605e+06
0 -18.259 10.9595 999222
0 -17.622 11.9511 989365
0 -16.9851 12.9427 986674
0 -16.3482 13.9342 987248
0 -15.7112 14.9258 989052
0 -15.0743 15.9174 986009
0 -14.4373 16.9089 984478
0 -18.6703 -8.69256 1.26955e+06
0 -18.8698 -7.77653 1.22192e+06
0 -19.0692 -6.8605 1.15612e+06
0 -19.2687 -5.94446 1.13932e+06
0 -19.4682 -5.02843 1.12956e+06
0 -19.6677 -4.1124 1.1085e+06
0 -19.8671 -3.19636 1.08134e+06
0 -20.0666 -2.28033 1.05882e+06
0 -20.2661 -1.3643 1.05002e+06
0 -20.4656 -0.448267 1.06747e+06
0 -20.665 0.467766 1.05174e+06
0 -20.8645 1.3838 1.03378e+06
0 -21.064 2.29983 1.01651e+06
0 -21.2635 3.21586 1.00363e+06
0 -21.4629 4.1319 1.00458e+06
0 -21.6624 5.04793 1.00721e+06
0 -13.117 -12.6537 1.54839e+06
0 -14.1085 -12.0168 1.44456e+06
0 -15.1001 -11.3799 1.4344e+06
0 -16.0916 -10.7429 1.39644e+06
0 -17.0832 -10.106 1.36593e+06
0 -18.0748 -9.46905 1.33434e+06
