# p  FACE_DATA 148
#  x  y  z  p
0 -15.7243 -8.12097 923022
0 -14.9796 -8.20952 917733
0 -14.2348 -8.29807 913617
0 -13.4901 -8.38662 911670
0 -12.7453 -8.47516 912034
0 -12.0006 -8.56371 914186
0 -11.2558 -8.65226 917760
0 -10.5111 -8.7408 924177
0 -9.76631 -8.82935 935244
0 -9.02155 -8.9179 938893
0 -8.2768 -9.00644 940398
0 -7.53204 -9.09499 946343
0 -6.78729 -9.18354 957056
0 -6.04254 -9.27208 969594
0 -5.29778 -9.36063 982367
0 -4.55303 -9.44918 996029
0 -3.80827 -9.53773 1.01081e+06
0 -3.06352 -9.62627 1.02607e+06
0 -2.31876 -9.71482 1.04171e+06
0 -1.57401 -9.80337 1.05858e+06
0 -0.829253 -9.89191 1.07808e+06
0 -0.0844982 -9.98046 1.09769e+06
0 0.660256 -10.069 1.10791e+06
0 1.40501 -10.1576 1.10644e+06
0 2.14977 -10.2461 1.10326e+06
0 2.89452 -10.3346 1.10633e+06
0 3.63927 -10.4232 1.11743e+06
0 4.38403 -10.5117 1.13048e+06
0 5.12878 -10.6003 1.14382e+06
0 5.87354 -10.6888 1.15878e+06
0 6.61829 -10.7774 1.17706e+06
0 7.36305 -10.8659 1.19664e+06
0 8.1078 -10.9545 1.21348e+06
0 8.85256 -11.043 1.22985e+06
0 9.59731 -11.1316 1.24918e+06
0 10.3421 -11.2201 1.27134e+06
0 11.0868 -11.3087 1.29298e+06
0 11.8316 -11.3972 1.30871e+06
0 12.5763 -11.4858 1.32002e+06
0 13.3211 -11.5743 1.34218e+06
0 14.1564 -11.254 1.33895e+06
0 15.0823 -10.5249 1.29831e+06
0 16.0082 -9.79578 1.27432e+06
0 16.9341 -9.06666 1.25933e+06
0 17.86 -8.33754 1.24635e+06
0 18.7859 -7.60842 1.2173e+06
0 19.3041 -6.77839 1.16562e+06
0 19.4148 -5.84745 1.12627e+06
0 19.5255 -4.9165 1.09231e+06
0 19.6362 -3.98556 1.05355e+06
0 19.7469 -3.05462 1.05174e+06
0 19.8576 -2.12367 1.0519e+06
0 19.9682 -1.19273 1.05128e+06
0 20.0789 -0.261786 1.04985e+06
0 20.1896 0.669157 1.04619e+06
0 20.3003 1.6001 1.03137e+06
0 20.411 2.53104 1.01693e+06
0 20.5217 3.46199 1.01037e+06
0 20.6324 4.39293 1.01146e+06
0 20.743 5.32387 1.0122e+06
0 20.8537 6.25482 1.01229e+06
0 20.9644 7.18576 1.0119e+06
0 20.6552 8.11418 1.00697e+06
0 19.9261 9.04007 1.00424e+06
0 19.1969 9.96596 1.00253e+06
0 18.4678 10.8918 997461
0 17.7387 11.8177 996128
0 17.0096 12.7436 995542
0 16.2805 13.6695 995103
0 15.5513 14.5954 994731
0 14.8222 15.5213 994431
0 14.0931 16.4472 994381
0 13.364 17.3731 994603
0 12.6349 18.299 994144
0 -7.34156 21.0937 990687
0 -6.84506 21.0346 990943
0 -6.34856 20.9756 990832
0 -5.85205 20.9166 990700
0 -5.35555 20.8575 990603
0 -4.85905 20.7985 990614
0 -4.36254 20.7395 990694
0 -3.86604 20.6804 990707
0 -3.36954 20.6214 990654
0 -2.87304 20.5624 990602
0 -2.37653 20.5033 990543
0 -1.88003 20.4443 990515
0 -1.38353 20.3853 990497
0 -0.887023 20.3262 990489
0 -0.39052 20.2672 990492
0 0.105983 20.2082 990505
0 0.602486 20.1492 990530
0 1.09899 20.0901 990565
0 1.59549 20.0311 990601
0 2.092 19.9721 990646
0 2.5885 19.913 990703
0 3.085 19.854 990757
0 3.5815 19.795 990869
0 4.07801 19.7359 990982
0 4.57451 19.6769 991078
0 5.07101 19.6179 991181
0 5.56752 19.5588 991297
0 6.06402 19.4998 991424
0 6.56052 19.4408 991562
0 7.05703 19.3817 991716
0 7.55353 19.3227 991894
0 8.05003 19.2637 992117
0 8.54654 19.2047 992399
0 9.04304 19.1456 992692
0 9.53954 19.0866 992834
0 10.036 19.0276 992699
0 10.5325 18.9685 993230
0 11.0291 18.9095 993647
0 11.5256 18.8505 993869
0 12.0221 18.7914 994088
0 -18.2376 12.7383 988112
0 -17.3117 13.4674 987826
0 -16.3858 14.1965 987151
0 -15.4599 14.9257 986507
0 -14.534 15.6548 986159
0 -13.6081 16.3839 986552
0 -12.6822 17.113 986126
0 -11.7563 17.8421 988559
0 -10.8304 18.5713 992982
0 -9.90454 19.3004 989968
0 -8.97865 20.0295 990484
0 -8.05276 20.7586 990779
0 -20.4161 -2.05589 964605
0 -20.3054 -1.12494 972639
0 -20.1947 -0.193999 976095
0 -20.084 0.736944 973858
0 -19.9734 1.66789 972429
0 -19.8627 2.59883 973809
0 -19.752 3.52977 981202
0 -19.6413 4.46072 979791
0 -19.5306 5.39166 980398
0 -19.4199 6.3226 981231
0 -19.3093 7.25355 982244
0 -19.1986 8.18449 982468
0 -19.0879 9.11543 980710
0 -18.9772 10.0464 979583
0 -18.8665 10.9773 987555
0 -18.7558 11.9083 987756
0 -16.4613 -7.61376 917907
0 -17.1904 -6.68787 950082
0 -17.9195 -5.76197 943301
0 -18.6486 -4.83608 944013
0 -19.3778 -3.91019 949723
0 -20.1069 -2.9843 956511
