# p  FACE_DATA 148
#  x  y  z  p
0 -12.6115 -12.5003 1.52796e+06
0 -11.8734 -12.3672 1.50655e+06
0 -11.1353 -12.2341 1.49608e+06
0 -10.3972 -12.101 1.47728e+06
0 -9.6591 -11.9679 1.45429e+06
0 -8.92101 -11.8348 1.43372e+06
0 -8.18291 -11.7017 1.41432e+06
0 -7.44481 -11.5686 1.39146e+06
0 -6.70672 -11.4356 1.36644e+06
0 -5.96862 -11.3025 1.34064e+06
0 -5.23052 -11.1694 1.31136e+06
0 -4.49242 -11.0363 1.28029e+06
0 -3.75433 -10.9032 1.251e+06
0 -3.01623 -10.7701 1.22378e+06
0 -2.27813 -10.637 1.19786e+06
0 -1.54003 -10.5039 1.17551e+06
0 -0.801936 -10.3709 1.15942e+06
0 -0.0638388 -10.2378 1.14281e+06
0 0.674259 -10.1047 1.11554e+06
0 1.41236 -9.97159 1.08237e+06
0 2.15045 -9.8385 1.05188e+06
0 2.88855 -9.70541 1.02637e+06
0 3.62665 -9.57233 1.0026e+06
0 4.36475 -9.43924 976595
0 5.10284 -9.30615 951128
0 5.84094 -9.17306 927423
0 6.57904 -9.03998 905020
0 7.31713 -8.90689 883316
0 8.05523 -8.7738 862799
0 8.79333 -8.64071 849215
0 9.53143 -8.50763 830373
0 10.2695 -8.37454 811907
0 11.0076 -8.24145 795389
0 11.7457 -8.10836 780069
0 12.4838 -7.97528 766339
0 13.2219 -7.84219 754999
0 13.96 -7.7091 747119
0 14.6981 -7.57601 741656
0 15.4362 -7.44293 741851
0 16.1743 -7.30984 740466
0 16.8795 -6.7593 735537
0 17.5517 -5.79132 786589
0 18.2239 -4.82334 793372
0 18.8962 -3.85535 803643
0 19.5684 -2.88737 817978
0 20.2406 -1.91939 831216
0 20.4936 -0.974084 850299
0 20.3272 -0.0514623 883396
0 20.1609 0.871159 923541
0 19.9945 1.79378 949847
0 19.8281 2.7164 961907
0 19.6618 3.63902 960036
0 19.4954 4.56165 951867
0 19.3291 5.48427 945043
0 19.1627 6.40689 942060
0 18.9963 7.32951 942628
0 18.83 8.25213 950473
0 18.6636 9.17475 963089
0 18.4973 10.0974 963972
0 18.3309 11.02 927785
0 18.1645 11.9426 951710
0 17.9982 12.8652 969455
0 17.431 13.6627 976355
0 16.463 14.3349 974790
0 15.495 15.0071 974702
0 14.5271 15.6794 975180
0 13.5591 16.3516 975329
0 12.5911 17.0238 975185
0 11.6231 17.6961 975031
0 10.6551 18.3683 975013
0 9.68714 19.0405 975308
0 8.71916 19.7128 975743
0 7.75118 20.385 976388
0 6.78319 21.0572 977752
0 -13.1374 17.8887 983933
0 -12.6453 17.9774 982101
0 -12.1532 18.0662 976253
0 -11.6612 18.1549 981573
0 -11.1691 18.2436 982553
0 -10.677 18.3323 981974
0 -10.185 18.4211 981812
0 -9.69291 18.5098 981812
0 -9.20084 18.5985 981812
0 -8.70878 18.6872 981780
0 -8.21671 18.776 981720
0 -7.72465 18.8647 981621
0 -7.23258 18.9534 981460
0 -6.74052 19.0421 981256
0 -6.24845 19.1309 980671
0 -5.75639 19.2196 980764
0 -5.26432 19.3083 981038
0 -4.77226 19.397 981045
0 -4.28019 19.4858 981051
0 -3.78813 19.5745 981040
0 -3.29606 19.6632 981016
0 -2.804 19.7519 980987
0 -2.31193 19.8407 980955
0 -1.81987 19.9294 980923
0 -1.3278 20.0181 980890
0 -0.83574 20.1068 980845
0 -0.343675 20.1956 980768
0 0.14839 20.2843 980661
0 0.640455 20.373 980537
0 1.13252 20.4617 980418
0 1.62458 20.5505 980307
0 2.11665 20.6392 980178
0 2.60871 20.7279 980019
0 3.10078 20.8166 979847
0 3.59284 20.9054 979721
0 4.08491 20.9941 979537
0 4.57697 21.0828 979078
0 5.06904 21.1715 978530
0 5.5611 21.2603 978174
0 6.05317 21.349 977693
0 -21.1141 6.71254 1.01859e+06
0 -20.4418 7.68053 1.00132e+06
0 -19.7696 8.64851 990744
0 -19.0974 9.61649 984143
0 -18.4251 10.5845 981463
0 -17.7529 11.5525 979895
0 -17.0807 12.5204 984097
0 -16.4084 13.4884 984663
0 -15.7362 14.4564 984320
0 -15.064 15.4244 984546
0 -14.3917 16.3924 987004
0 -13.7195 17.3604 983993
0 -18.8716 -8.07209 1.26493e+06
0 -19.038 -7.14946 1.20538e+06
0 -19.2043 -6.22684 1.06072e+06
0 -19.3707 -5.30422 1.05195e+06
0 -19.5371 -4.3816 1.04872e+06
0 -19.7034 -3.45898 1.04694e+06
0 -19.8698 -2.53636 1.04569e+06
0 -20.0361 -1.61373 1.04567e+06
0 -20.2025 -0.691112 1.04622e+06
0 -20.3689 0.231509 1.05413e+06
0 -20.5352 1.15413 1.05929e+06
0 -20.7016 2.07675 1.05741e+06
0 -20.8679 2.99937 1.05929e+06
0 -21.0343 3.922 1.06336e+06
0 -21.2007 4.84462 1.07518e+06
0 -21.367 5.76724 1.08219e+06
0 -13.4645 -12.2307 1.52524e+06
0 -14.4325 -11.5584 1.45511e+06
0 -15.4005 -10.8862 1.4189e+06
0 -16.3685 -10.214 1.38455e+06
0 -17.3365 -9.54175 1.34826e+06
0 -18.3045 -8.86951 1.31178e+06
