# p  FACE_DATA 148
#  x  y  z  p
0 -13.6909 -11.2854 1.18114e+06
0 -12.944 -11.2176 1.17202e+06
0 -12.197 -11.1498 1.16433e+06
0 -11.4501 -11.082 1.15509e+06
0 -10.7032 -11.0142 1.14526e+06
0 -9.95624 -10.9465 1.1358e+06
0 -9.20931 -10.8787 1.12676e+06
0 -8.46238 -10.8109 1.11823e+06
0 -7.71545 -10.7431 1.11006e+06
0 -6.96852 -10.6753 1.10238e+06
0 -6.22159 -10.6075 1.0952e+06
0 -5.47466 -10.5397 1.08836e+06
0 -4.72773 -10.4719 1.08154e+06
0 -3.9808 -10.4042 1.07459e+06
0 -3.23387 -10.3364 1.06766e+06
0 -2.48694 -10.2686 1.06152e+06
0 -1.74001 -10.2008 1.05663e+06
0 -0.993075 -10.133 1.05249e+06
0 -0.246145 -10.0652 1.04677e+06
0 0.500786 -9.99743 1.03933e+06
0 1.24772 -9.92965 1.0301e+06
0 1.99465 -9.86186 1.02044e+06
0 2.74158 -9.79407 1.01284e+06
0 3.48851 -9.72628 1.00791e+06
0 4.23544 -9.6585 1.00395e+06
0 4.98237 -9.59071 1.00162e+06
0 5.7293 -9.52292 1.00127e+06
0 6.47623 -9.45513 1.00109e+06
0 7.22316 -9.38735 1.00098e+06
0 7.97009 -9.31956 1.00185e+06
0 8.71702 -9.25177 1.00288e+06
0 9.46395 -9.18398 1.00309e+06
0 10.2109 -9.1162 1.00386e+06
0 10.9578 -9.04841 1.00689e+06
0 11.7047 -8.98062 1.01177e+06
0 12.4517 -8.91283 1.01708e+06
0 13.1986 -8.84504 1.0216e+06
0 13.9455 -8.77726 1.02576e+06
0 14.6925 -8.70947 1.03244e+06
0 15.4394 -8.64168 1.0447e+06
0 16.1902 -8.15517 1.03979e+06
0 16.9448 -7.24993 1.0323e+06
0 17.6994 -6.34468 1.02711e+06
0 18.454 -5.43944 1.02658e+06
0 19.2086 -4.5342 1.03451e+06
0 19.9632 -3.62896 1.04844e+06
0 20.2981 -2.7095 1.04089e+06
0 20.2134 -1.77584 1.03037e+06
0 20.1286 -0.842178 1.02063e+06
0 20.0439 0.0914844 1.01188e+06
0 19.9592 1.02515 1.00579e+06
0 19.8744 1.95881 1.00304e+06
0 19.7897 2.89247 1.003e+06
0 19.705 3.82614 1.00295e+06
0 19.6202 4.7598 1.00289e+06
0 19.5355 5.69346 1.00284e+06
0 19.4508 6.62712 1.0028e+06
0 19.366 7.56079 1.00276e+06
0 19.2813 8.49445 1.00279e+06
0 19.1966 9.42811 1.00286e+06
0 19.1118 10.3618 1.00289e+06
0 19.0271 11.2954 1.00283e+06
0 18.5321 12.1396 1.00275e+06
0 17.6269 12.8942 1.00269e+06
0 16.7216 13.6488 1.00267e+06
0 15.8164 14.4034 1.00261e+06
0 14.9111 15.158 1.0025e+06
0 14.0059 15.9126 1.00237e+06
0 13.1006 16.6672 1.0023e+06
0 12.1954 17.4218 1.00228e+06
0 11.2902 18.1764 1.00229e+06
0 10.3849 18.931 1.00241e+06
0 9.47968 19.6856 1.00261e+06
0 8.57444 20.4402 1.00259e+06
0 -11.5473 19.0324 1.00331e+06
0 -11.0494 19.0776 1.00327e+06
0 -10.5514 19.1228 1.00322e+06
0 -10.0535 19.168 1.00313e+06
0 -9.55553 19.2132 1.00302e+06
0 -9.05758 19.2584 1.0029e+06
0 -8.55963 19.3036 1.0028e+06
0 -8.06167 19.3488 1.00271e+06
0 -7.56372 19.394 1.00262e+06
0 -7.06577 19.4392 1.00253e+06
0 -6.56781 19.4843 1.00245e+06
0 -6.06986 19.5295 1.00238e+06
0 -5.57191 19.5747 1.00232e+06
0 -5.07395 19.6199 1.00226e+06
0 -4.576 19.6651 1.00221e+06
0 -4.07805 19.7103 1.00217e+06
0 -3.58009 19.7555 1.00214e+06
0 -3.08214 19.8007 1.00212e+06
0 -2.58418 19.8459 1.00211e+06
0 -2.08623 19.8911 1.0021e+06
0 -1.58828 19.9363 1.0021e+06
0 -1.09032 19.9815 1.00211e+06
0 -0.592371 20.0266 1.00212e+06
0 -0.0944174 20.0718 1.00214e+06
0 0.403536 20.117 1.00216e+06
0 0.90149 20.1622 1.00218e+06
0 1.39944 20.2074 1.00219e+06
0 1.8974 20.2526 1.0022e+06
0 2.39535 20.2978 1.00223e+06
0 2.8933 20.343 1.00225e+06
0 3.39126 20.3882 1.00228e+06
0 3.88921 20.4334 1.00232e+06
0 4.38716 20.4786 1.00235e+06
0 4.88512 20.5238 1.00239e+06
0 5.38307 20.569 1.00243e+06
0 5.88102 20.6141 1.00246e+06
0 6.37898 20.6593 1.00249e+06
0 6.87693 20.7045 1.00251e+06
0 7.37489 20.7497 1.00253e+06
0 7.87284 20.7949 1.00255e+06
0 -20.4743 8.59955 1.00529e+06
0 -19.7197 9.50479 1.00489e+06
0 -18.9651 10.41 1.00447e+06
0 -18.2104 11.3153 1.00416e+06
0 -17.4558 12.2205 1.00395e+06
0 -16.7012 13.1258 1.0038e+06
0 -15.9466 14.031 1.00369e+06
0 -15.192 14.9362 1.0036e+06
0 -14.4374 15.8415 1.00351e+06
0 -13.6828 16.7467 1.00345e+06
0 -12.9282 17.652 1.00339e+06
0 -12.1736 18.5572 1.00336e+06
0 -19.5382 -6.32484 1.11323e+06
0 -19.6229 -5.39118 1.09695e+06
0 -19.7076 -4.45752 1.07547e+06
0 -19.7924 -3.52386 1.0544e+06
0 -19.8771 -2.59019 1.03682e+06
0 -19.9618 -1.65653 1.02351e+06
0 -20.0466 -0.722868 1.0153e+06
0 -20.1313 0.210795 1.01006e+06
0 -20.2161 1.14446 1.00684e+06
0 -20.3008 2.07812 1.00539e+06
0 -20.3855 3.01178 1.00556e+06
0 -20.4703 3.94545 1.00547e+06
0 -20.555 4.87911 1.0054e+06
0 -20.6397 5.81277 1.00538e+06
0 -20.7245 6.74644 1.00536e+06
0 -20.8092 7.6801 1.00535e+06
0 -14.517 -10.942 1.17768e+06
0 -15.4222 -10.1874 1.17336e+06
0 -16.3275 -9.43279 1.15682e+06
0 -17.2327 -8.67818 1.1426e+06
0 -18.1379 -7.92358 1.13311e+06
0 -19.0432 -7.16898 1.12352e+06
