# p  FACE_DATA 148
#  x  y  z  p
0 -16.3933 -6.7025 901234
0 -15.6609 -6.86427 901190
0 -14.9286 -7.02603 902523
0 -14.1962 -7.1878 906204
0 -13.4639 -7.34957 910948
0 -12.7315 -7.51133 916580
0 -11.9992 -7.6731 923490
0 -11.2668 -7.83486 931833
0 -10.5345 -7.99663 941577
0 -9.80213 -8.1584 952305
0 -9.06978 -8.32016 963705
0 -8.33744 -8.48193 975714
0 -7.60509 -8.6437 988445
0 -6.87274 -8.80546 1.00184e+06
0 -6.1404 -8.96723 1.01571e+06
0 -5.40805 -9.12899 1.02992e+06
0 -4.6757 -9.29076 1.04441e+06
0 -3.94336 -9.45253 1.05913e+06
0 -3.21101 -9.61429 1.07405e+06
0 -2.47866 -9.77606 1.08918e+06
0 -1.74632 -9.93782 1.1044e+06
0 -1.01397 -10.0996 1.11963e+06
0 -0.281623 -10.2614 1.13496e+06
0 0.450724 -10.4231 1.14977e+06
0 1.18307 -10.5849 1.16493e+06
0 1.91542 -10.7467 1.17984e+06
0 2.64776 -10.9084 1.19463e+06
0 3.38011 -11.0702 1.20925e+06
0 4.11246 -11.232 1.22368e+06
0 4.8448 -11.3937 1.23788e+06
0 5.57715 -11.5555 1.25181e+06
0 6.3095 -11.7173 1.26533e+06
0 7.04184 -11.879 1.27832e+06
0 7.77419 -12.0408 1.29061e+06
0 8.50654 -12.2026 1.30195e+06
0 9.23888 -12.3643 1.31253e+06
0 9.97123 -12.5261 1.32088e+06
0 10.7036 -12.6878 1.32869e+06
0 11.4359 -12.8496 1.33107e+06
0 12.1683 -13.0114 1.3425e+06
0 13.0312 -12.7753 1.34012e+06
0 14.0246 -12.1413 1.30761e+06
0 15.0181 -11.5073 1.28762e+06
0 16.0116 -10.8733 1.2688e+06
0 17.005 -10.2394 1.24982e+06
0 17.9985 -9.60538 1.22622e+06
0 18.5963 -8.83068 1.19027e+06
0 18.7985 -7.91524 1.15758e+06
0 19.0007 -6.99981 1.12891e+06
0 19.2029 -6.08438 1.10431e+06
0 19.4051 -5.16894 1.08186e+06
0 19.6073 -4.25351 1.05979e+06
0 19.8095 -3.33808 1.03556e+06
0 20.0118 -2.42264 1.01452e+06
0 20.214 -1.50721 1.00896e+06
0 20.4162 -0.591776 1.00855e+06
0 20.6184 0.323657 1.00835e+06
0 20.8206 1.23909 1.00813e+06
0 21.0228 2.15452 1.00792e+06
0 21.225 3.06996 1.00769e+06
0 21.4272 3.98539 1.00744e+06
0 21.6294 4.90082 1.00714e+06
0 21.4135 5.85527 1.00671e+06
0 20.7796 6.84873 1.00628e+06
0 20.1456 7.84219 1.00592e+06
0 19.5116 8.83565 1.00567e+06
0 18.8776 9.8291 1.00544e+06
0 18.2436 10.8226 1.00523e+06
0 17.6097 11.816 1.00502e+06
0 16.9757 12.8095 1.00481e+06
0 16.3417 13.8029 1.00459e+06
0 15.7077 14.7964 1.00436e+06
0 15.0737 15.7899 1.00406e+06
0 14.4398 16.7833 1.00363e+06
0 -5.16235 21.5399 1.00154e+06
0 -4.67412 21.432 1.00167e+06
0 -4.18589 21.3242 1.00178e+06
0 -3.69766 21.2164 1.00187e+06
0 -3.20943 21.1085 1.00196e+06
0 -2.7212 21.0007 1.00203e+06
0 -2.23296 20.8928 1.00209e+06
0 -1.74473 20.785 1.00214e+06
0 -1.2565 20.6771 1.00219e+06
0 -0.768271 20.5693 1.00223e+06
0 -0.28004 20.4614 1.00226e+06
0 0.208191 20.3536 1.00229e+06
0 0.696422 20.2458 1.00232e+06
0 1.18465 20.1379 1.00235e+06
0 1.67288 20.0301 1.00237e+06
0 2.16112 19.9222 1.00239e+06
0 2.64935 19.8144 1.00241e+06
0 3.13758 19.7065 1.00243e+06
0 3.62581 19.5987 1.00245e+06
0 4.11404 19.4908 1.00247e+06
0 4.60227 19.383 1.00248e+06
0 5.0905 19.2752 1.00249e+06
0 5.57873 19.1673 1.00251e+06
0 6.06696 19.0595 1.00253e+06
0 6.5552 18.9516 1.00255e+06
0 7.04343 18.8438 1.00258e+06
0 7.53166 18.7359 1.0026e+06
0 8.01989 18.6281 1.00263e+06
0 8.50812 18.5203 1.00267e+06
0 8.99635 18.4124 1.00271e+06
0 9.48458 18.3046 1.00276e+06
0 9.97281 18.1967 1.00281e+06
0 10.461 18.0889 1.00287e+06
0 10.9493 17.981 1.00294e+06
0 11.4375 17.8732 1.00302e+06
0 11.9257 17.7653 1.0031e+06
0 12.414 17.6575 1.0032e+06
0 12.9022 17.5497 1.0033e+06
0 13.3904 17.4418 1.0034e+06
0 13.8787 17.334 1.00357e+06
0 -16.8312 14.3031 1.00055e+06
0 -15.8378 14.937 1.00073e+06
0 -14.8443 15.571 1.00084e+06
0 -13.8509 16.205 1.0009e+06
0 -12.8574 16.839 1.00093e+06
0 -11.8639 17.4729 1.00097e+06
0 -10.8705 18.1069 1.001e+06
0 -9.87703 18.7409 1.00104e+06
0 -8.88357 19.3749 1.00109e+06
0 -7.89011 20.0089 1.00119e+06
0 -6.89666 20.6428 1.00132e+06
0 -5.9032 21.2768 1.00157e+06
0 -20.4622 -0.20315 969616
0 -20.26 0.712283 985650
0 -20.0578 1.62772 1.00028e+06
0 -19.8556 2.54315 999762
0 -19.6534 3.45858 999752
0 -19.4512 4.37402 999813
0 -19.2489 5.28945 999869
0 -19.0467 6.20488 999906
0 -18.8445 7.12032 999929
0 -18.6423 8.03575 999944
0 -18.4401 8.95118 999956
0 -18.2379 9.86662 999976
0 -18.0357 10.7821 1.00001e+06
0 -17.8335 11.6975 1.00006e+06
0 -17.6313 12.6129 1.00014e+06
0 -17.4291 13.5284 1.00027e+06
0 -17.0764 -6.12489 895409
0 -17.7104 -5.13143 915304
0 -18.3444 -4.13797 919793
0 -18.9783 -3.14451 925462
0 -19.6123 -2.15105 934473
0 -20.2463 -1.1576 950367
