# p  FACE_DATA 148
#  x  y  z  p
0 -16.4939 -6.46346 852145
0 -15.763 -6.63152 850593
0 -15.0321 -6.79958 848680
0 -14.3012 -6.96764 851210
0 -13.5702 -7.1357 854331
0 -12.8393 -7.30376 860542
0 -12.1084 -7.47182 869493
0 -11.3775 -7.63989 879876
0 -10.6465 -7.80795 897682
0 -9.9156 -7.97601 920832
0 -9.18467 -8.14407 930005
0 -8.45374 -8.31213 934598
0 -7.72281 -8.48019 940724
0 -6.99189 -8.64825 955400
0 -6.26096 -8.81631 976390
0 -5.53003 -8.98438 997657
0 -4.7991 -9.15244 1.01868e+06
0 -4.06818 -9.3205 1.04127e+06
0 -3.33725 -9.48856 1.06476e+06
0 -2.60632 -9.65662 1.08884e+06
0 -1.87539 -9.82468 1.11383e+06
0 -1.14446 -9.99274 1.14032e+06
0 -0.413536 -10.1608 1.1685e+06
0 0.317392 -10.3289 1.19714e+06
0 1.04832 -10.4969 1.22092e+06
0 1.77925 -10.665 1.23419e+06
0 2.51017 -10.8331 1.24381e+06
0 3.2411 -11.0011 1.25718e+06
0 3.97203 -11.1692 1.27554e+06
0 4.70296 -11.3372 1.29412e+06
0 5.43389 -11.5053 1.31193e+06
0 6.16481 -11.6734 1.3304e+06
0 6.89574 -11.8414 1.35142e+06
0 7.62667 -12.0095 1.36905e+06
0 8.3576 -12.1775 1.38301e+06
0 9.08852 -12.3456 1.39472e+06
0 9.81945 -12.5137 1.40596e+06
0 10.5504 -12.6817 1.41375e+06
0 11.2813 -12.8498 1.4119e+06
0 12.0122 -13.0178 1.41736e+06
0 12.8771 -12.7892 1.41505e+06
0 13.876 -12.1638 1.33955e+06
0 14.8749 -11.5384 1.32554e+06
0 15.8738 -10.913 1.29903e+06
0 16.8726 -10.2875 1.27166e+06
0 17.8715 -9.66214 1.2354e+06
0 18.476 -8.8926 1.16637e+06
0 18.6861 -7.97894 1.11022e+06
0 18.8962 -7.06528 1.08918e+06
0 19.1062 -6.15162 1.07567e+06
0 19.3163 -5.23797 1.03184e+06
0 19.5264 -4.32431 1.0214e+06
0 19.7365 -3.41065 1.02029e+06
0 19.9465 -2.49699 1.0196e+06
0 20.1566 -1.58333 1.01896e+06
0 20.3667 -0.669666 1.01851e+06
0 20.5768 0.243993 1.01803e+06
0 20.7868 1.15765 1.01763e+06
0 20.9969 2.07131 1.0172e+06
0 21.207 2.98497 1.0162e+06
0 21.4171 3.89863 1.02054e+06
0 21.6271 4.81229 1.01828e+06
0 21.4195 5.76856 1.00529e+06
0 20.7941 6.76744 1.00379e+06
0 20.1687 7.76631 1.00229e+06
0 19.5433 8.76519 1.00049e+06
0 18.9179 9.76407 998382
0 18.2924 10.7629 996974
0 17.667 11.7618 996432
0 17.0416 12.7607 996042
0 16.4162 13.7596 995667
0 15.7908 14.7585 995406
0 15.1654 15.7573 995087
0 14.54 16.7562 994267
0 -5.02047 21.6813 987924
0 -4.53318 21.5692 988281
0 -4.0459 21.4572 988488
0 -3.55861 21.3451 988724
0 -3.07133 21.2331 988951
0 -2.58404 21.1211 989114
0 -2.09676 21.009 989229
0 -1.60947 20.897 989302
0 -1.12218 20.7849 989367
0 -0.634899 20.6729 989435
0 -0.147614 20.5608 989501
0 0.339671 20.4488 989579
0 0.826956 20.3368 989656
0 1.31424 20.2247 989730
0 1.80153 20.1127 989820
0 2.28881 20.0006 989922
0 2.7761 19.8886 990024
0 3.26338 19.7766 990128
0 3.75067 19.6645 990236
0 4.23795 19.5525 990341
0 4.72524 19.4404 990442
0 5.21252 19.3284 990556
0 5.69981 19.2164 990702
0 6.18709 19.1043 990840
0 6.67438 18.9923 990975
0 7.16166 18.8802 991125
0 7.64895 18.7682 991294
0 8.13623 18.6562 991484
0 8.62352 18.5441 991689
0 9.1108 18.4321 991911
0 9.59809 18.32 992150
0 10.0854 18.208 992405
0 10.5727 18.0959 992650
0 11.0599 17.9839 992842
0 11.5472 17.8719 993181
0 12.0345 17.7598 993565
0 12.5218 17.6478 993681
0 13.0091 17.5357 993789
0 13.4964 17.4237 993893
0 13.9837 17.3117 994205
0 -16.7512 14.5451 986549
0 -15.7523 15.1705 984970
0 -14.7534 15.7959 985187
0 -13.7546 16.4213 984537
0 -12.7557 17.0467 984989
0 -11.7568 17.6721 985473
0 -10.7579 18.2975 985957
0 -9.75905 18.9229 986352
0 -8.76018 19.5484 986370
0 -7.7613 20.1738 986658
0 -6.76242 20.7992 986997
0 -5.76355 21.4246 987977
0 -20.5068 0.0706636 952173
0 -20.2967 0.984323 960040
0 -20.0867 1.89798 963027
0 -19.8766 2.81164 966242
0 -19.6665 3.7253 970066
0 -19.4564 4.63896 973070
0 -19.2464 5.55262 972617
0 -19.0363 6.46628 972844
0 -18.8262 7.37994 973217
0 -18.6161 8.2936 973257
0 -18.4061 9.20726 973361
0 -18.196 10.1209 978380
0 -17.9859 11.0346 981188
0 -17.7758 11.9482 981648
0 -17.5657 12.8619 981743
0 -17.3557 13.7756 981572
0 -17.1721 -5.87999 846261
0 -17.7975 -4.88111 880965
0 -18.4229 -3.88223 884261
0 -19.0483 -2.88336 905987
0 -19.6737 -1.88448 926633
0 -20.2992 -0.885605 943900
