# p  FACE_DATA 148
#  x  y  z  p
0 -15.8062 -8.10211 958103
0 -15.0624 -8.19825 941566
0 -14.3186 -8.29439 934568
0 -13.5748 -8.39054 929503
0 -12.831 -8.48668 923962
0 -12.0872 -8.58282 916692
0 -11.3434 -8.67896 908806
0 -10.5996 -8.77511 904249
0 -9.85575 -8.87125 903883
0 -9.11194 -8.96739 903578
0 -8.36812 -9.06353 901989
0 -7.62431 -9.15968 899791
0 -6.8805 -9.25582 899386
0 -6.13669 -9.35196 902645
0 -5.39288 -9.4481 910538
0 -4.64906 -9.54425 922072
0 -3.90525 -9.64039 934289
0 -3.16144 -9.73653 950228
0 -2.41763 -9.83267 971509
0 -1.67381 -9.92882 994812
0 -0.930002 -10.025 1.01267e+06
0 -0.18619 -10.1211 1.02048e+06
0 0.557623 -10.2172 1.02336e+06
0 1.30143 -10.3134 1.02915e+06
0 2.04525 -10.4095 1.03865e+06
0 2.78906 -10.5057 1.05079e+06
0 3.53287 -10.6018 1.06473e+06
0 4.27668 -10.698 1.08268e+06
0 5.0205 -10.7941 1.09809e+06
0 5.76431 -10.8902 1.10953e+06
0 6.50812 -10.9864 1.11276e+06
0 7.25193 -11.0825 1.12173e+06
0 7.99575 -11.1787 1.13297e+06
0 8.73956 -11.2748 1.14269e+06
0 9.48337 -11.371 1.15335e+06
0 10.2272 -11.4671 1.16514e+06
0 10.971 -11.5632 1.17616e+06
0 11.7148 -11.6594 1.18612e+06
0 12.4586 -11.7555 1.19379e+06
0 13.2024 -11.8517 1.20804e+06
0 14.041 -11.5399 1.20489e+06
0 14.9743 -10.8203 1.17761e+06
0 15.9075 -10.1007 1.14953e+06
0 16.8408 -9.38102 1.13047e+06
0 17.7741 -8.66139 1.11579e+06
0 18.7074 -7.94175 1.099e+06
0 19.2341 -7.11705 1.0802e+06
0 19.3543 -6.18729 1.05773e+06
0 19.4745 -5.25752 1.03646e+06
0 19.5947 -4.32776 1.02206e+06
0 19.7148 -3.39799 1.01571e+06
0 19.835 -2.46823 1.0127e+06
0 19.9552 -1.53846 1.011e+06
0 20.0754 -0.608696 1.00921e+06
0 20.1955 0.321069 1.00675e+06
0 20.3157 1.25083 1.00448e+06
0 20.4359 2.1806 1.00274e+06
0 20.5561 3.11037 1.00178e+06
0 20.6763 4.04013 999422
0 20.7964 4.9699 996779
0 20.9166 5.89966 994820
0 21.0368 6.82943 996996
0 20.7371 7.76095 997423
0 20.0174 8.69423 995912
0 19.2978 9.62752 994863
0 18.5782 10.5608 994030
0 17.8585 11.4941 992749
0 17.1389 12.4274 992017
0 16.4193 13.3606 991521
0 15.6996 14.2939 991078
0 14.98 15.2272 990547
0 14.2604 16.1605 989887
0 13.5407 17.0938 989335
0 12.8211 18.0271 989059
0 -7.12577 21.0255 985504
0 -6.6299 20.9614 985542
0 -6.13402 20.8973 985541
0 -5.63815 20.8332 985566
0 -5.14227 20.7691 985620
0 -4.6464 20.705 985650
0 -4.15052 20.6409 985637
0 -3.65465 20.5768 985522
0 -3.15877 20.5127 985264
0 -2.6629 20.4486 985342
0 -2.16702 20.3845 985295
0 -1.67115 20.3204 985284
0 -1.17527 20.2563 985281
0 -0.679398 20.1922 985284
0 -0.183523 20.1281 985288
0 0.312351 20.064 985295
0 0.808226 19.9999 985304
0 1.3041 19.9358 985312
0 1.79998 19.8717 985318
0 2.29585 19.8077 985312
0 2.79173 19.7436 985297
0 3.2876 19.6795 985255
0 3.78348 19.6154 985329
0 4.27935 19.5513 985531
0 4.77522 19.4872 985683
0 5.2711 19.4231 985861
0 5.76697 19.359 986063
0 6.26285 19.2949 986281
0 6.75872 19.2308 986494
0 7.2546 19.1667 986710
0 7.75047 19.1026 986932
0 8.24635 19.0385 987134
0 8.74222 18.9744 987441
0 9.2381 18.9103 987833
0 9.73397 18.8462 988077
0 10.2298 18.7821 988311
0 10.7257 18.718 988511
0 11.2216 18.6539 988676
0 11.7175 18.5898 988823
0 12.2133 18.5258 989003
0 -18.1065 12.7817 985565
0 -17.1732 13.5014 985009
0 -16.2399 14.221 984855
0 -15.3066 14.9406 984916
0 -14.3733 15.6603 984989
0 -13.44 16.3799 985045
0 -12.5068 17.0995 985059
0 -11.5735 17.8192 985075
0 -10.6402 18.5388 985148
0 -9.70692 19.2584 985307
0 -8.77363 19.9781 985490
0 -7.84035 20.6977 985586
0 -20.4359 -1.98946 1.00129e+06
0 -20.3157 -1.05969 1.00049e+06
0 -20.1955 -0.129928 997497
0 -20.0753 0.799837 992609
0 -19.9552 1.7296 988331
0 -19.835 2.65937 988238
0 -19.7148 3.58913 986309
0 -19.5946 4.5189 986354
0 -19.4744 5.44866 986404
0 -19.3543 6.37843 986386
0 -19.2341 7.30819 986397
0 -19.1139 8.23796 986443
0 -18.9937 9.16773 986187
0 -18.8735 10.0975 985362
0 -18.7534 11.0273 985393
0 -18.6332 11.957 993382
0 -16.538 -7.5874 952913
0 -17.2576 -6.65411 952488
0 -17.9772 -5.72083 953758
0 -18.6969 -4.78755 961622
0 -19.4165 -3.85427 978022
0 -20.1361 -2.92098 994122
