# p  FACE_DATA 148
#  x  y  z  p
0 -16.3819 -6.50085 799103
0 -15.6505 -6.66677 801442
0 -14.9191 -6.8327 799469
0 -14.1877 -6.99862 804688
0 -13.4563 -7.16455 810999
0 -12.7249 -7.33047 818328
0 -11.9934 -7.49639 828609
0 -11.262 -7.66232 842758
0 -10.5306 -7.82824 858484
0 -9.7992 -7.99417 875221
0 -9.06779 -8.16009 895704
0 -8.33637 -8.32602 916535
0 -7.60495 -8.49194 935343
0 -6.87354 -8.65786 953438
0 -6.14212 -8.82379 972301
0 -5.41071 -8.98971 991334
0 -4.67929 -9.15564 1.01019e+06
0 -3.94787 -9.32156 1.03301e+06
0 -3.21646 -9.48749 1.06235e+06
0 -2.48504 -9.65341 1.09457e+06
0 -1.75363 -9.81934 1.12656e+06
0 -1.02221 -9.98526 1.15131e+06
0 -0.290795 -10.1512 1.16946e+06
0 0.44062 -10.3171 1.18899e+06
0 1.17204 -10.483 1.21045e+06
0 1.90345 -10.649 1.23312e+06
0 2.63487 -10.8149 1.25711e+06
0 3.36628 -10.9808 1.28271e+06
0 4.0977 -11.1467 1.30908e+06
0 4.82912 -11.3127 1.33438e+06
0 5.56053 -11.4786 1.35898e+06
0 6.29195 -11.6445 1.38351e+06
0 7.02336 -11.8104 1.40698e+06
0 7.75478 -11.9764 1.42851e+06
0 8.48619 -12.1423 1.44811e+06
0 9.21761 -12.3082 1.46559e+06
0 9.94903 -12.4741 1.4813e+06
0 10.6804 -12.64 1.49626e+06
0 11.4119 -12.806 1.50049e+06
0 12.1433 -12.9719 1.51103e+06
0 13.0075 -12.7407 1.50873e+06
0 14.0045 -12.1124 1.43104e+06
0 15.0016 -11.4841 1.42198e+06
0 15.9986 -10.8557 1.38754e+06
0 16.9957 -10.2274 1.35639e+06
0 17.9927 -9.59908 1.32944e+06
0 18.595 -8.82778 1.29049e+06
0 18.8024 -7.91351 1.25055e+06
0 19.0098 -6.99924 1.21716e+06
0 19.2172 -6.08497 1.18867e+06
0 19.4246 -5.1707 1.16482e+06
0 19.632 -4.25643 1.14444e+06
0 19.8394 -3.34216 1.12676e+06
0 20.0468 -2.42789 1.11067e+06
0 20.2542 -1.51362 1.09517e+06
0 20.4616 -0.599355 1.07671e+06
0 20.669 0.314915 1.05915e+06
0 20.8764 1.22918 1.02489e+06
0 21.0838 2.14345 1.00358e+06
0 21.2912 3.05772 999339
0 21.4986 3.97199 998182
0 21.706 4.88626 997865
0 21.4956 5.84192 996305
0 20.8673 6.83897 994133
0 20.2389 7.83601 992995
0 19.6106 8.83305 992374
0 18.9823 9.8301 991688
0 18.354 10.8271 991123
0 17.7256 11.8242 990572
0 17.0973 12.8212 990008
0 16.469 13.8183 989402
0 15.8407 14.8153 988893
0 15.2123 15.8124 988396
0 14.584 16.8094 987594
0 -4.99077 21.6773 982253
0 -4.50316 21.5667 982701
0 -4.01554 21.456 982877
0 -3.52793 21.3454 983057
0 -3.04032 21.2348 983244
0 -2.55271 21.1242 983410
0 -2.0651 21.0136 983506
0 -1.57749 20.903 983610
0 -1.08988 20.7923 983674
0 -0.602271 20.6817 983736
0 -0.11466 20.5711 983800
0 0.37295 20.4605 983866
0 0.860561 20.3499 983927
0 1.34817 20.2393 983992
0 1.83578 20.1286 984058
0 2.32339 20.018 984116
0 2.811 19.9074 984165
0 3.29861 19.7968 984165
0 3.78622 19.6862 984299
0 4.27383 19.5756 984503
0 4.76145 19.465 984540
0 5.24906 19.3543 984566
0 5.73667 19.2437 984594
0 6.22428 19.1331 984648
0 6.71189 19.0225 984742
0 7.1995 18.9119 984852
0 7.68711 18.8013 984971
0 8.17472 18.6906 985080
0 8.66233 18.58 985230
0 9.14994 18.4694 985414
0 9.63755 18.3588 985571
0 10.1252 18.2482 985684
0 10.6128 18.1376 985711
0 11.1004 18.0269 985515
0 11.588 17.9163 986233
0 12.0756 17.8057 986661
0 12.5632 17.6951 986785
0 13.0508 17.5845 986967
0 13.5384 17.4739 987165
0 14.026 17.3632 987532
0 -16.7006 14.5069 979302
0 -15.7035 15.1352 979678
0 -14.7065 15.7635 979907
0 -13.7095 16.3918 980025
0 -12.7124 17.0202 980138
0 -11.7154 17.6485 980311
0 -10.7183 18.2768 980553
0 -9.72127 18.9051 980845
0 -8.72423 19.5335 981154
0 -7.72718 20.1618 981505
0 -6.73014 20.7901 981521
0 -5.73309 21.4184 982336
0 -20.4139 0.0215168 910586
0 -20.2065 0.935787 921472
0 -19.9991 1.85006 938083
0 -19.7917 2.76433 950909
0 -19.5843 3.6786 958653
0 -19.3769 4.59287 963319
0 -19.1695 5.50714 969307
0 -18.9621 6.42141 973106
0 -18.7546 7.33568 972395
0 -18.5472 8.24994 971809
0 -18.3398 9.16421 971138
0 -18.1324 10.0785 969997
0 -17.925 10.9928 971516
0 -17.7176 11.907 976015
0 -17.5102 12.8213 978321
0 -17.3028 13.7356 978697
0 -17.0618 -5.91936 793240
0 -17.6901 -4.92232 829657
0 -18.3185 -3.92527 841971
0 -18.9468 -2.92823 868287
0 -19.5751 -1.93119 885746
0 -20.2034 -0.93414 897203
