# p  FACE_DATA 148
#  x  y  z  p
0 -14.8007 -9.76102 1.05184e+06
0 -14.0507 -9.77186 1.04302e+06
0 -13.3008 -9.7827 1.03499e+06
0 -12.5509 -9.79354 1.02831e+06
0 -11.801 -9.80438 1.02353e+06
0 -11.051 -9.81521 1.02053e+06
0 -10.3011 -9.82605 1.01909e+06
0 -9.5512 -9.83689 1.01868e+06
0 -8.80128 -9.84773 1.019e+06
0 -8.05136 -9.85856 1.01986e+06
0 -7.30144 -9.8694 1.02116e+06
0 -6.55152 -9.88024 1.02282e+06
0 -5.80159 -9.89108 1.02468e+06
0 -5.05167 -9.90192 1.02663e+06
0 -4.30175 -9.91275 1.0288e+06
0 -3.55183 -9.92359 1.03115e+06
0 -2.80191 -9.93443 1.03355e+06
0 -2.05199 -9.94527 1.03631e+06
0 -1.30206 -9.9561 1.03863e+06
0 -0.552143 -9.96694 1.0455e+06
0 0.197779 -9.97778 1.04865e+06
0 0.9477 -9.98862 1.04496e+06
0 1.69762 -9.99946 1.03962e+06
0 2.44754 -10.0103 1.03693e+06
0 3.19747 -10.0211 1.03783e+06
0 3.94739 -10.032 1.04086e+06
0 4.69731 -10.0428 1.04476e+06
0 5.44723 -10.0536 1.04929e+06
0 6.19715 -10.0645 1.05505e+06
0 6.94707 -10.0753 1.06229e+06
0 7.697 -10.0862 1.07039e+06
0 8.44692 -10.097 1.07832e+06
0 9.19684 -10.1078 1.08718e+06
0 9.94676 -10.1187 1.09893e+06
0 10.6967 -10.1295 1.1135e+06
0 11.4466 -10.1403 1.12864e+06
0 12.1965 -10.1512 1.14146e+06
0 12.9464 -10.162 1.15272e+06
0 13.6964 -10.1729 1.16693e+06
0 14.4463 -10.1837 1.18755e+06
0 15.2439 -9.77852 1.18346e+06
0 16.0892 -8.95731 1.15947e+06
0 16.9345 -8.13611 1.1452e+06
0 17.7798 -7.3149 1.14001e+06
0 18.625 -6.4937 1.14448e+06
0 19.4703 -5.67249 1.151e+06
0 19.8998 -4.79319 1.12906e+06
0 19.9133 -3.85579 1.10469e+06
0 19.9268 -2.91839 1.0846e+06
0 19.9404 -1.98098 1.0696e+06
0 19.9539 -1.04358 1.05565e+06
0 19.9675 -0.10618 1.03923e+06
0 19.981 0.831222 1.02275e+06
0 19.9946 1.76862 1.01085e+06
0 20.0081 2.70603 1.00871e+06
0 20.0217 3.64343 1.00599e+06
0 20.0352 4.58083 1.00506e+06
0 20.0488 5.51823 1.00501e+06
0 20.0623 6.45564 1.00493e+06
0 20.0759 7.39304 1.00493e+06
0 20.0894 8.33044 1.0049e+06
0 20.103 9.26784 1.00476e+06
0 19.6991 10.1592 1.00449e+06
0 18.8779 11.0045 1.00428e+06
0 18.0567 11.8498 1.00406e+06
0 17.2355 12.6951 1.00387e+06
0 16.4143 13.5403 1.00375e+06
0 15.5931 14.3856 1.00362e+06
0 14.7719 15.2309 1.00346e+06
0 13.9507 16.0762 1.00334e+06
0 13.1295 16.9215 1.00326e+06
0 12.3083 17.7668 1.00333e+06
0 11.4871 18.6121 1.00349e+06
0 10.6659 19.4574 1.00329e+06
0 -9.49265 20.1654 1.00362e+06
0 -8.9927 20.1582 1.00363e+06
0 -8.49276 20.1509 1.00355e+06
0 -7.99281 20.1437 1.0034e+06
0 -7.49286 20.1365 1.00323e+06
0 -6.99291 20.1293 1.00307e+06
0 -6.49297 20.122 1.00294e+06
0 -5.99302 20.1148 1.00281e+06
0 -5.49307 20.1076 1.0027e+06
0 -4.99312 20.1004 1.0026e+06
0 -4.49317 20.0931 1.00253e+06
0 -3.99323 20.0859 1.00246e+06
0 -3.49328 20.0787 1.00241e+06
0 -2.99333 20.0715 1.00236e+06
0 -2.49338 20.0642 1.00232e+06
0 -1.99343 20.057 1.0023e+06
0 -1.49349 20.0498 1.00229e+06
0 -0.993539 20.0426 1.00229e+06
0 -0.493592 20.0353 1.0023e+06
0 0.00635618 20.0281 1.00231e+06
0 0.506304 20.0209 1.00231e+06
0 1.00625 20.0137 1.00231e+06
0 1.5062 20.0064 1.00231e+06
0 2.00615 19.9992 1.00232e+06
0 2.5061 19.992 1.00233e+06
0 3.00604 19.9848 1.00235e+06
0 3.50599 19.9775 1.00238e+06
0 4.00594 19.9703 1.00241e+06
0 4.50589 19.9631 1.00244e+06
0 5.00583 19.9559 1.00248e+06
0 5.50578 19.9486 1.00253e+06
0 6.00573 19.9414 1.00258e+06
0 6.50568 19.9342 1.00265e+06
0 7.00563 19.927 1.00272e+06
0 7.50557 19.9197 1.0028e+06
0 8.00552 19.9125 1.00289e+06
0 8.50547 19.9053 1.00298e+06
0 9.00542 19.8981 1.00307e+06
0 9.50536 19.8908 1.00315e+06
0 10.0053 19.8836 1.00324e+06
0 -19.4634 10.7252 1.27651e+06
0 -18.6182 11.5464 1.12718e+06
0 -17.7729 12.3676 1.03473e+06
0 -16.9276 13.1888 1.01244e+06
0 -16.0823 14.01 1.00659e+06
0 -15.237 14.8312 1.00205e+06
0 -14.3917 15.6524 1.00174e+06
0 -13.5464 16.4736 1.00377e+06
0 -12.7011 17.2948 1.00395e+06
0 -11.8558 18.116 1.00376e+06
0 -11.0106 18.9372 1.00363e+06
0 -10.1653 19.7584 1.00367e+06
0 -20.0961 -4.21517 1.06685e+06
0 -20.0825 -3.27777 1.05413e+06
0 -20.069 -2.34037 1.03188e+06
0 -20.0554 -1.40297 1.01568e+06
0 -20.0419 -0.465565 1.00586e+06
0 -20.0283 0.471837 1.00039e+06
0 -20.0148 1.40924 994169
0 -20.0012 2.34664 985798
0 -19.9877 3.28404 981209
0 -19.9741 4.22145 984221
0 -19.9606 5.15885 992339
0 -19.947 6.09625 998634
0 -19.9335 7.03365 1.00011e+06
0 -19.92 7.97105 1.00141e+06
0 -19.9064 8.90846 1.03761e+06
0 -19.8929 9.84586 1.14346e+06
0 -15.5862 -9.33296 1.04753e+06
0 -16.4074 -8.48767 1.06322e+06
0 -17.2286 -7.64238 1.04638e+06
0 -18.0498 -6.7971 1.03694e+06
0 -18.871 -5.95181 1.04048e+06
0 -19.6922 -5.10652 1.04847e+06
