# p  FACE_DATA 148
#  x  y  z  p
0 -15.3791 -8.94912 1.12477e+06
0 -14.6314 -9.00807 1.11127e+06
0 -13.8837 -9.06703 1.10744e+06
0 -13.136 -9.12598 1.10157e+06
0 -12.3884 -9.18493 1.09354e+06
0 -11.6407 -9.24388 1.08495e+06
0 -10.893 -9.30283 1.07656e+06
0 -10.1453 -9.36178 1.06922e+06
0 -9.39765 -9.42073 1.06307e+06
0 -8.64997 -9.47968 1.05714e+06
0 -7.90229 -9.53863 1.05111e+06
0 -7.15461 -9.59758 1.04562e+06
0 -6.40693 -9.65653 1.04121e+06
0 -5.65925 -9.71548 1.03766e+06
0 -4.91157 -9.77443 1.03432e+06
0 -4.16389 -9.83338 1.031e+06
0 -3.41621 -9.89233 1.02918e+06
0 -2.66853 -9.95128 1.02917e+06
0 -1.92085 -10.0102 1.03175e+06
0 -1.17317 -10.0692 1.03868e+06
0 -0.425494 -10.1281 1.04826e+06
0 0.322185 -10.1871 1.05673e+06
0 1.06986 -10.246 1.06097e+06
0 1.81754 -10.305 1.06227e+06
0 2.56522 -10.3639 1.06623e+06
0 3.3129 -10.4229 1.07191e+06
0 4.06058 -10.4818 1.07783e+06
0 4.80826 -10.5408 1.08357e+06
0 5.55594 -10.5997 1.08961e+06
0 6.30362 -10.6587 1.09618e+06
0 7.0513 -10.7176 1.10335e+06
0 7.79898 -10.7766 1.11139e+06
0 8.54666 -10.8355 1.1203e+06
0 9.29434 -10.8945 1.12978e+06
0 10.042 -10.9534 1.13985e+06
0 10.7897 -11.0124 1.15017e+06
0 11.5374 -11.0713 1.16016e+06
0 12.2851 -11.1303 1.16921e+06
0 13.0327 -11.1892 1.17733e+06
0 13.7804 -11.2482 1.1885e+06
0 14.6024 -10.895 1.18494e+06
0 15.4986 -10.1298 1.17976e+06
0 16.3949 -9.36454 1.16302e+06
0 17.2912 -8.59928 1.14618e+06
0 18.1874 -7.83403 1.13327e+06
0 19.0837 -7.06877 1.12067e+06
0 19.5686 -6.21884 1.10751e+06
0 19.6423 -5.28425 1.08514e+06
0 19.716 -4.34965 1.05147e+06
0 19.7897 -3.41505 1.01489e+06
0 19.8634 -2.48045 1.00946e+06
0 19.9371 -1.54585 1.00858e+06
0 20.0108 -0.611247 1.00796e+06
0 20.0845 0.323352 1.00746e+06
0 20.1581 1.25795 1.00705e+06
0 20.2318 2.19255 1.0067e+06
0 20.3055 3.12715 1.0064e+06
0 20.3792 4.06175 1.00615e+06
0 20.4529 4.99635 1.00595e+06
0 20.5266 5.93095 1.0058e+06
0 20.6003 6.86555 1.00569e+06
0 20.674 7.80015 1.00562e+06
0 20.3282 8.71558 1.00551e+06
0 19.5629 9.61183 1.00507e+06
0 18.7977 10.5081 1.00461e+06
0 18.0324 11.4043 1.00423e+06
0 17.2672 12.3006 1.00396e+06
0 16.5019 13.1969 1.00376e+06
0 15.7367 14.0931 1.00361e+06
0 14.9714 14.9894 1.00351e+06
0 14.2061 15.8856 1.0034e+06
0 13.4409 16.7819 1.00332e+06
0 12.6756 17.6781 1.00325e+06
0 11.9104 18.5744 1.00321e+06
0 -8.16115 20.5749 1.00227e+06
0 -7.66269 20.5356 1.00224e+06
0 -7.16424 20.4963 1.00222e+06
0 -6.66579 20.457 1.00219e+06
0 -6.16733 20.4177 1.00217e+06
0 -5.66888 20.3784 1.00213e+06
0 -5.17043 20.3391 1.0021e+06
0 -4.67197 20.2998 1.00206e+06
0 -4.17352 20.2605 1.00203e+06
0 -3.67507 20.2212 1.002e+06
0 -3.17662 20.1819 1.00197e+06
0 -2.67816 20.1426 1.00195e+06
0 -2.17971 20.1033 1.00192e+06
0 -1.68126 20.064 1.0019e+06
0 -1.1828 20.0247 1.00189e+06
0 -0.68435 19.9854 1.00188e+06
0 -0.185897 19.9461 1.00187e+06
0 0.312556 19.9068 1.00186e+06
0 0.811009 19.8675 1.00185e+06
0 1.30946 19.8282 1.00185e+06
0 1.80792 19.7889 1.00184e+06
0 2.30637 19.7496 1.00184e+06
0 2.80482 19.7103 1.00186e+06
0 3.30327 19.671 1.00189e+06
0 3.80173 19.6317 1.00192e+06
0 4.30018 19.5924 1.00197e+06
0 4.79863 19.5531 1.00204e+06
0 5.29709 19.5138 1.00211e+06
0 5.79554 19.4745 1.00218e+06
0 6.29399 19.4352 1.00226e+06
0 6.79245 19.3959 1.00235e+06
0 7.2909 19.3566 1.00245e+06
0 7.78935 19.3173 1.00254e+06
0 8.28781 19.278 1.00264e+06
0 8.78626 19.2387 1.00275e+06
0 9.28471 19.1994 1.00287e+06
0 9.78316 19.1601 1.00298e+06
0 10.2816 19.1208 1.00307e+06
0 10.7801 19.0815 1.00313e+06
0 11.2785 19.0422 1.00316e+06
0 -18.7173 11.7941 1.00243e+06
0 -17.8211 12.5594 1.00235e+06
0 -16.9248 13.3246 1.00233e+06
0 -16.0285 14.0899 1.00233e+06
0 -15.1323 14.8551 1.00233e+06
0 -14.236 15.6204 1.00226e+06
0 -13.3398 16.3856 1.00214e+06
0 -12.4435 17.1509 1.00208e+06
0 -11.5473 17.9161 1.00208e+06
0 -10.651 18.6814 1.00219e+06
0 -9.75476 19.4467 1.00237e+06
0 -8.8585 20.2119 1.00231e+06
0 -20.3076 -3.07481 1.10515e+06
0 -20.2339 -2.14021 1.0961e+06
0 -20.1602 -1.20562 1.08108e+06
0 -20.0865 -0.271016 1.06222e+06
0 -20.0129 0.663584 1.04185e+06
0 -19.9392 1.59818 1.0254e+06
0 -19.8655 2.53278 1.01107e+06
0 -19.7918 3.46738 1.00387e+06
0 -19.7181 4.40198 1.0027e+06
0 -19.6444 5.33658 1.00269e+06
0 -19.5707 6.27118 1.00264e+06
0 -19.497 7.20578 1.00257e+06
0 -19.4234 8.14038 1.00254e+06
0 -19.3497 9.07498 1.00257e+06
0 -19.276 10.0096 1.00261e+06
0 -19.2023 10.9442 1.00255e+06
0 -16.1356 -8.47152 1.11996e+06
0 -16.9008 -7.57526 1.11474e+06
0 -17.6661 -6.67901 1.11102e+06
0 -18.4313 -5.78275 1.1089e+06
0 -19.1966 -4.8865 1.10805e+06
0 -19.9618 -3.99024 1.10675e+06
