# Probe 0 (0 9.95 19.77)
# Probe 1 (0 -9.95 19.77)
#       Probe             0             1
#        Time
         0.05   1.00992e+06        992799
          0.1   1.01063e+06        997032
         0.15        992606   1.01241e+06
          0.2        999276   1.00837e+06
         0.25   1.00463e+06   1.00046e+06
          0.3   1.00487e+06        999776
         0.35   1.00127e+06   1.00475e+06
          0.4        999990   1.00629e+06
         0.45   1.00176e+06   1.00377e+06
          0.5   1.00273e+06    1.0022e+06
         0.55   1.00191e+06   1.00327e+06
          0.6   1.00107e+06    1.0044e+06
         0.65    1.0014e+06     1.004e+06
          0.7   1.00205e+06   1.00315e+06
         0.75   1.00216e+06   1.00306e+06
          0.8   1.00191e+06   1.00342e+06
         0.85     1.002e+06    1.0034e+06
          0.9   1.00234e+06   1.00308e+06
         0.95   1.00261e+06   1.00285e+06
            1   1.00282e+06   1.00268e+06
         1.05   1.00296e+06   1.00248e+06
          1.1   1.00311e+06   1.00232e+06
         1.15   1.00323e+06   1.00218e+06
          1.2   1.00336e+06     1.002e+06
         1.25   1.00348e+06   1.00184e+06
          1.3   1.00355e+06   1.00172e+06
         1.35   1.00361e+06   1.00164e+06
          1.4   1.00363e+06   1.00158e+06
         1.45   1.00357e+06    1.0016e+06
          1.5   1.00351e+06   1.00162e+06
         1.55   1.00364e+06   1.00156e+06
          1.6   1.00365e+06   1.00162e+06
         1.65   1.00358e+06   1.00176e+06
          1.7    1.0035e+06   1.00192e+06
         1.75   1.00344e+06   1.00207e+06
          1.8   1.00338e+06   1.00225e+06
         1.85   1.00328e+06   1.00245e+06
          1.9   1.00324e+06   1.00266e+06
         1.95     1.003e+06   1.00292e+06
            2    1.0028e+06   1.00314e+06
         2.05   1.00271e+06   1.00326e+06
          2.1   1.00256e+06   1.00338e+06
         2.15   1.00236e+06   1.00353e+06
          2.2   1.00218e+06   1.00365e+06
         2.25   1.00203e+06    1.0037e+06
          2.3   1.00192e+06    1.0037e+06
         2.35   1.00181e+06   1.00372e+06
          2.4    1.0017e+06   1.00376e+06
         2.45   1.00167e+06   1.00373e+06
          2.5   1.00166e+06   1.00365e+06
         2.55    1.0017e+06   1.00362e+06
          2.6   1.00177e+06   1.00354e+06
         2.65   1.00185e+06   1.00347e+06
          2.7   1.00187e+06    1.0035e+06
         2.75   1.00203e+06   1.00336e+06
          2.8   1.00225e+06   1.00318e+06
         2.85   1.00243e+06   1.00308e+06
          2.9    1.0027e+06   1.00286e+06
         2.95   1.00293e+06   1.00261e+06
            3   1.00303e+06    1.0025e+06
         3.05   1.00314e+06   1.00236e+06
          3.1   1.00331e+06   1.00214e+06
         3.15   1.00349e+06   1.00195e+06
          3.2   1.00356e+06   1.00182e+06
         3.25   1.00363e+06   1.00171e+06
          3.3   1.00368e+06   1.00164e+06
         3.35   1.00366e+06   1.00163e+06
          3.4   1.00363e+06   1.00165e+06
         3.45   1.00377e+06   1.00156e+06
          3.5   1.00378e+06   1.00163e+06
         3.55   1.00372e+06   1.00176e+06
          3.6   1.00367e+06   1.00188e+06
         3.65   1.00362e+06   1.00203e+06
          3.7   1.00353e+06    1.0022e+06
         3.75   1.00342e+06   1.00242e+06
          3.8   1.00336e+06   1.00263e+06
         3.85   1.00315e+06   1.00287e+06
          3.9   1.00289e+06   1.00315e+06
         3.95   1.00275e+06   1.00324e+06
            4   1.00259e+06   1.00336e+06
         4.05   1.00236e+06   1.00352e+06
          4.1   1.00213e+06   1.00366e+06
         4.15   1.00196e+06   1.00372e+06
          4.2   1.00182e+06   1.00373e+06
         4.25   1.00168e+06   1.00377e+06
          4.3   1.00157e+06   1.00378e+06
         4.35   1.00153e+06   1.00376e+06
          4.4   1.00149e+06   1.00369e+06
         4.45   1.00153e+06   1.00365e+06
          4.5   1.00159e+06   1.00366e+06
         4.55   1.00168e+06   1.00358e+06
          4.6   1.00184e+06   1.00348e+06
         4.65   1.00204e+06   1.00332e+06
          4.7   1.00224e+06    1.0032e+06
         4.75    1.0024e+06   1.00308e+06
          4.8   1.00259e+06   1.00291e+06
         4.85   1.00281e+06   1.00271e+06
          4.9   1.00304e+06   1.00249e+06
         4.95   1.00323e+06   1.00232e+06
            5   1.00338e+06   1.00216e+06
         5.05   1.00354e+06     1.002e+06
          5.1   1.00369e+06   1.00186e+06
         5.15   1.00379e+06   1.00174e+06
          5.2   1.00386e+06   1.00168e+06
         5.25   1.00393e+06   1.00166e+06
          5.3   1.00396e+06   1.00165e+06
         5.35   1.00392e+06   1.00169e+06
          5.4   1.00388e+06   1.00185e+06
         5.45   1.00408e+06   1.00181e+06
          5.5   1.00406e+06   1.00192e+06
         5.55   1.00389e+06   1.00212e+06
          5.6   1.00377e+06    1.0023e+06
         5.65   1.00379e+06   1.00246e+06
          5.7   1.00349e+06   1.00264e+06
         5.75   1.00309e+06    1.0029e+06
          5.8   1.00282e+06   1.00312e+06
         5.85    1.0026e+06   1.00319e+06
          5.9   1.00231e+06   1.00333e+06
         5.95   1.00194e+06   1.00348e+06
            6   1.00158e+06    1.0037e+06
         6.05   1.00137e+06   1.00375e+06
          6.1   1.00127e+06    1.0038e+06
         6.15   1.00124e+06   1.00379e+06
          6.2    1.0012e+06   1.00382e+06
         6.25   1.00119e+06   1.00379e+06
          6.3   1.00126e+06   1.00371e+06
         6.35   1.00141e+06   1.00361e+06
          6.4   1.00157e+06   1.00351e+06
         6.45   1.00157e+06   1.00361e+06
          6.5   1.00172e+06   1.00349e+06
         6.55     1.002e+06   1.00329e+06
          6.6   1.00225e+06   1.00318e+06
         6.65   1.00259e+06   1.00296e+06
          6.7   1.00295e+06   1.00266e+06
         6.75   1.00305e+06   1.00251e+06
          6.8   1.00321e+06   1.00231e+06
         6.85   1.00336e+06   1.00218e+06
          6.9   1.00358e+06   1.00197e+06
         6.95   1.00376e+06   1.00175e+06
            7   1.00385e+06   1.00164e+06
         7.05   1.00395e+06   1.00161e+06
          7.1   1.00407e+06   1.00156e+06
         7.15   1.00417e+06   1.00154e+06
          7.2   1.00421e+06   1.00162e+06
         7.25    1.0043e+06   1.00174e+06
          7.3   1.00443e+06   1.00183e+06
         7.35   1.00438e+06   1.00197e+06
          7.4   1.00413e+06   1.00231e+06
         7.45   1.00416e+06    1.0025e+06
          7.5   1.00414e+06   1.00269e+06
         7.55   1.00369e+06   1.00301e+06
          7.6   1.00329e+06   1.00367e+06
         7.65   1.00301e+06    1.0043e+06
          7.7   1.00255e+06   1.00499e+06
         7.75   1.00195e+06   1.00541e+06
          7.8   1.00141e+06   1.00585e+06
         7.85     1.001e+06   1.00799e+06
          7.9   1.00042e+06   1.01363e+06
         7.95   1.00011e+06   1.02149e+06
            8   1.00005e+06   1.02365e+06
         8.05        999971   1.01286e+06
          8.1        999858   1.00591e+06
         8.15        999786   1.00143e+06
          8.2        999961        999667
         8.25        999991   1.00279e+06
          8.3   1.00011e+06    1.0055e+06
         8.35   1.00033e+06   1.00737e+06
          8.4   1.00085e+06   1.00854e+06
         8.45   1.00138e+06   1.00759e+06
          8.5   1.00167e+06   1.00443e+06
         8.55   1.00206e+06   1.00261e+06
          8.6   1.00246e+06   1.00346e+06
         8.65   1.00293e+06   1.00347e+06
          8.7   1.00318e+06   1.00207e+06
         8.75   1.00332e+06   1.00097e+06
          8.8   1.00364e+06        999790
         8.85   1.00378e+06        999072
          8.9   1.00404e+06        998626
         8.95   1.00402e+06        998433
            9   1.00403e+06        998972
         9.05   1.00408e+06        999460
          9.1   1.00411e+06   1.00045e+06
         9.15   1.00414e+06   1.00333e+06
          9.2   1.00399e+06   1.00121e+06
         9.25   1.00386e+06        998702
          9.3   1.00368e+06        997461
         9.35   1.00365e+06        997067
          9.4   1.00258e+06        998876
         9.45   1.00195e+06        999434
          9.5    1.0019e+06        998936
         9.55   1.00088e+06        999547
          9.6   1.00018e+06        999104
         9.65        999007        998962
          9.7        998172   1.00072e+06
         9.75        997206   1.00219e+06
          9.8        995701    1.0041e+06
         9.85        995541   1.00329e+06
          9.9        996345   1.00206e+06
         9.95        998060   1.00037e+06
           10        999690   1.00063e+06
        10.05   1.00017e+06   1.00077e+06
         10.1        999759        999383
        10.15        998359        998558
         10.2        996816        998733
        10.25        996539        999933
         10.3        997901        999356
        10.35        999540        999846
         10.4   1.00147e+06        998435
        10.45   1.00144e+06        997133
         10.5        999858        996150
        10.55        998370        996336
         10.6        998382        996993
        10.65        999807        998094
         10.7   1.00104e+06        998201
        10.75   1.00185e+06        997867
         10.8    1.0015e+06        998003
        10.85   1.00052e+06        998350
         10.9   1.00037e+06        999631
        10.95   1.00127e+06   1.00134e+06
           11   1.00335e+06   1.00155e+06
        11.05   1.00498e+06   1.00072e+06
         11.1   1.00433e+06        999075
        11.15   1.00226e+06        997279
         11.2        999286        995809
        11.25        995678        995077
         11.3        994424        995234
        11.35        993924        994809
         11.4        994513        995259
        11.45        995659        996079
         11.5        997007        995844
        11.55        997081        995955
         11.6        996659        995350
        11.65        995253        995326
         11.7        993860        995617
        11.75        993270        997953
         11.8        993323   1.00093e+06
        11.85        993985   1.00529e+06
         11.9        994087   1.00903e+06
        11.95        994183   1.00292e+06
           12        994393        998717
        12.05        994538        998059
         12.1        994763        998628
        12.15        995834        998983
         12.2        997277        998535
        12.25        998594        996620
         12.3        998897        995321
        12.35        998662        995162
         12.4        998805        995453
        12.45        998632        995117
         12.5        998625        993941
        12.55        998532        992512
         12.6        997203        989868
        12.65        995909        987285
         12.7        997228        988687
        12.75        998309        991253
         12.8   1.00058e+06        994081
        12.85   1.00136e+06        994504
         12.9   1.00046e+06        994131
        12.95        999142        991794
           13        998144        991687
        13.05        998308        992808
         13.1        996648        995230
        13.15        993792        998312
         13.2        991045        998417
        13.25        990166        997477
         13.3        990593        996702
        13.35        992163        996877
         13.4        993436        996942
        13.45        994066        996835
         13.5        994809        999153
        13.55        993165   1.00264e+06
         13.6        990455   1.00379e+06
        13.65        989794   1.00301e+06
         13.7        993368        999458
        13.75        995852        995433
         13.8        996514        993748
        13.85        996510        993778
         13.9        994826        991028
        13.95        992355        987888
           14        993903        987371
        14.05        995030        988945
         14.1        997070        989870
        14.15        999182        990232
         14.2   1.00068e+06        989886
        14.25   1.00114e+06        989559
         14.3   1.00102e+06        989340
        14.35   1.00041e+06        990045
         14.4        999428        991030
        14.45        998332        991735
         14.5        997746        992426
        14.55        997469        991833
         14.6        996981        990965
        14.65        997289        990766
         14.7        997268        991576
        14.75        996176        993264
         14.8        994683        994435
        14.85        994234        994654
         14.9        992198        995016
        14.95        990105        994398
           15        988566        994015
        15.05        988844        993913
         15.1        988251        993504
        15.15        988451        993581
         15.2        988598        994090
        15.25        988824        994638
         15.3        988235        994376
        15.35        988700        993901
         15.4        989192        994042
        15.45        990523        994598
         15.5        990482        994702
        15.55        990323        995065
         15.6        992549        995767
        15.65        995132        995780
         15.7        994777        996235
        15.75        995392        995196
         15.8        993576        994125
        15.85        992911        992699
         15.9        992515        991436
        15.95        992430        990907
           16        992114        990562
        16.05        991807        990516
         16.1        991514        989958
        16.15        991836        989366
         16.2        992974        988700
        16.25        993611        988592
         16.3        995528        991236
        16.35        996092        994685
         16.4        996124        994619
        16.45        995752        992943
         16.5        994131        991934
        16.55        992731        992419
         16.6        991815        994383
        16.65        991480        995788
         16.7        991163        995884
        16.75        990349        994863
         16.8        989087        993836
        16.85        987330        993453
         16.9        986186        993379
        16.95        985755        993195
           17        985942        992899
        17.05        986313        991717
         17.1        985970        989701
        17.15        984712        984584
         17.2        983091        984513
        17.25        984361        985485
         17.3        986697        987224
        17.35        989730        988976
         17.4        992978        990852
        17.45        995388        991170
         17.5        996441        990577
        17.55        996198        990465
         17.6        995685        990205
        17.65        995259        989917
         17.7        995444        990096
        17.75        996063        989977
         17.8        996706        990083
        17.85        997205        990366
         17.9        997310        991276
        17.95        996751        992963
           18        996405        994116
        18.05        995649        993979
         18.1        995219        994340
        18.15        994243        994338
         18.2        993236        994291
        18.25        991597        994008
         18.3        989895        993002
        18.35        988063        991726
         18.4        986380        990548
        18.45        984834        989019
         18.5        983391        987663
        18.55        982123        986758
         18.6        981390        986019
        18.65        981090        985821
         18.7        981783        986996
        18.75        983212        987873
         18.8        985074        988412
        18.85        986966        989058
         18.9        988938        989000
        18.95        990599        990517
           19        992040        990252
        19.05        992973        990374
         19.1        993959        989432
        19.15        994009        989685
         19.2        994347        989107
        19.25        994295        988995
         19.3        994471        989460
        19.35        995463        990566
         19.4        997145        991088
        19.45        998585        990980
         19.5        999512        991091
        19.55        999108        991596
         19.6        998191        992407
        19.65        997066        992996
         19.7        995226        993020
        19.75        993940        993115
         19.8        992449        993073
        19.85        991469        992105
         19.9        989642        991411
        19.95        987709        990450
           20        985649        989560
        20.05        983362        988420
         20.1        981145        987351
        20.15        980368        986317
         20.2        980487        986121
        20.25        980888        986907
         20.3        982207        988176
        20.35        984012        989312
         20.4        985690        990487
        20.45        986726        990014
         20.5        986658        988551
        20.55        985997        988388
         20.6        986895        989255
        20.65        989237        989254
         20.7        991156        989325
        20.75        993213        989184
         20.8        995119        989308
        20.85        996213        989178
         20.9        996609        989040
        20.95        995801        988610
           21        994262        987990
        21.05        993546        987506
         21.1        992518        987370
        21.15        992938        987082
         21.2        994965        988036
        21.25        994141        990789
         21.3        994091        992542
        21.35        993561        991983
         21.4        993758   1.00138e+06
        21.45        992567   1.00633e+06
         21.5        989017   1.00147e+06
        21.55        985993        997588
         21.6        985968        993934
        21.65        987343        991299
         21.7        987375        991349
        21.75        986740        991774
         21.8        986196        992124
        21.85        986685        991700
         21.9        986782        990629
        21.95        986308        989623
           22        985568        988601
        22.05        985166        987609
         22.1        984772        987494
        22.15        985654        988727
         22.2        988143        987331
        22.25        989007        987757
         22.3        990815        988259
        22.35        990705        987981
         22.4        990223        988959
        22.45        990751        988056
         22.5        990861        988422
        22.55        991858        988975
         22.6        992921        989085
        22.65        993466        989024
         22.7        993935        988906
        22.75        994401        988531
         22.8        993976        988694
        22.85        992632        989647
         22.9        992197        990604
        22.95        993161        990678
           23        993560        990503
        23.05        992758        990358
         23.1        990766        990148
        23.15        988627        991205
         23.2        987139        991936
        23.25        986993        992238
         23.3        987082        991687
        23.35        986694        991013
         23.4        986041        990246
        23.45        984729        989432
         23.5        983526        988873
        23.55        982737        988567
         23.6        983632        988599
        23.65        985427        988644
         23.7        987131        989507
        23.75        989230        990641
         23.8        989285        991345
        23.85        989816        991076
         23.9        990281        989587
        23.95        989914        987663
           24        989899        985534
        24.05        989974        984577
         24.1        989843        984262
        24.15        988899        983270
         24.2        987589        982356
        24.25        987465        982718
         24.3        988736        983359
        24.35        988895        984101
         24.4        989590        985558
        24.45        990620        986501
         24.5        991197        987684
        24.55        990952        989579
         24.6        990256        990388
        24.65        988725        990631
         24.7        988264        991070
        24.75        988163        991539
         24.8        987778        991817
        24.85        987036        991467
         24.9        985967        991454
        24.95        984992        991234
           25        984535        990692
        25.05        984474        990259
         25.1        984785        989695
        25.15        985195        989820
         25.2        985727        989967
        25.25        986659        990116
         25.3        987455        989497
        25.35        988813        989205
         25.4        990190        988320
        25.45        991179        986991
         25.5        990749        986034
        25.55        990240        985472
         25.6        990150        984952
        25.65        990188        983726
         25.7        989574        982551
        25.75        988781        982007
         25.8        987817        981366
        25.85        987598        981491
         25.9        988509        981979
        25.95        988881        983562
           26        988918        985401
        26.05        988676        986727
         26.1        988682        986673
        26.15        988455        987269
         26.2        987800        989067
        26.25        987691        990573
         26.3        987557        991415
        26.35        987185        991999
         26.4        986843        992609
        26.45        986699        992847
         26.5        986580        992785
        26.55        986408        992859
         26.6        986412        993359
        26.65        987055        993303
         26.7        988124        992829
        26.75        988886        992435
         26.8        989155        992331
        26.85        989113        991664
         26.9        988458        989678
        26.95        988775        987541
           27        989056        985595
        27.05        989307        984507
         27.1        989051        983152
        27.15        988000        982070
         27.2        986564        980946
        27.25        985223        979989
         27.3        984328        979300
        27.35        983594        978585
         27.4        982345        977577
        27.45        983225        977186
         27.5        984803        979056
        27.55        985908        982147
         27.6        985698        984908
        27.65        985823        987048
         27.7        985698        988169
        27.75        985396        988486
         27.8        985141        988930
        27.85        985749        990133
         27.9        986243        991924
        27.95        986751        993226
           28        987577        993988
        28.05        988105        994656
         28.1        987902        995068
        28.15        988310        994540
         28.2        988413        992832
        28.25        988001        991270
         28.3        987316        989904
        28.35        987289        988642
         28.4        987787        987156
        28.45        988124        985264
         28.5        986752        983755
        28.55        985628        982187
         28.6        985073        980868
        28.65        984406        979476
         28.7        983371        978356
        28.75        982124        977300
         28.8        981518        976157
        28.85        981985        975812
         28.9        982892        976398
        28.95        983994        977820
           29        985616        980415
        29.05        985989        983217
         29.1        985819        986079
        29.15        986743        987573
         29.2        987412        988785
        29.25        987407        990225
         29.3        987331        991941
        29.35        987498        993834
         29.4        987704        995022
        29.45        987822        995827
         29.5        987863        995959
        29.55        987782        995860
         29.6        987323        995283
        29.65        987235        993957
         29.7        987070        992573
        29.75        986359        991223
         29.8        986471        990069
        29.85        986467        988376
         29.9        985755        985609
        29.95        985744        983417
           30        986435        981977
        30.05        986512        980814
         30.1        985240        980148
        30.15        984185        979641
         30.2        983950        978688
        30.25        983970        978438
         30.3        984299        978781
        30.35        983979        979243
         30.4        982865        979259
        30.45        983286        980039
         30.5        983711        981214
        30.55        983126        982668
         30.6        984200        983933
        30.65        984852        985691
         30.7        985746        988008
        30.75        987629        990905
         30.8        987914        993113
        30.85        987267        994346
         30.9        987613        995003
        30.95        987813        994829
           31        987914        993848
        31.05        987723        992771
         31.1        987224        991963
        31.15        986821        991120
         31.2        986801        989965
        31.25        986799        988631
         31.3        986553        986870
        31.35        986370        984955
         31.4        985941        982926
        31.45        985453        981076
         31.5        985029        980497
        31.55        985288        980005
         31.6        985731        979253
        31.65        985396        979134
         31.7        984898        979376
        31.75        984551        980284
         31.8        984901        981622
        31.85        987613        981209
         31.9        987312        980382
        31.95        986223        980344
           32        984857        982640
        32.05        984758        985556
         32.1        985031        989127
        32.15        985940        992265
         32.2        986882        992734
        32.25        987505        990842
         32.3        985899        989786
        32.35        984125        989515
         32.4        983581        989400
        32.45        983812        989485
         32.5        983604        989868
        32.55        983609        990036
         32.6        983912        988591
        32.65        983922        987775
         32.7        984459        985278
        32.75        985110        982878
         32.8        984448        982610
        32.85        984417        982689
         32.9        985494        982134
        32.95        987007        981645
           33        988152        981621
        33.05        988264        981383
         33.1        988335        981160
        33.15        988824        981679
         33.2        988469        982845
        33.25        987700        983756
         33.3        987846        984162
        33.35        988561        984735
         33.4        988166        985596
        33.45        987461        986341
         33.5        986041        987210
        33.55        984883        987808
         33.6        983959        987710
        33.65        983450        987254
         33.7        982910        986312
        33.75        982080        985419
         33.8        981023        985350
        33.85        980034        985053
         33.9        979151        984462
        33.95        979349        984234
           34        980758        984782
        34.05        982090        985224
         34.1        982881        984890
        34.15        983628        984304
         34.2        984457        983798
        34.25        985574        983614
         34.3        987194        983122
        34.35        988454        982520
         34.4        988874        982181
        34.45        988587        981840
         34.5        987950        981346
        34.55        987632        981128
         34.6        987964        980928
        34.65        988469        981132
         34.7        989230        982309
        34.75        989411        984046
         34.8        987900        985214
        34.85        985520        986810
         34.9        983273        987812
        34.95        981230        987697
           35        979619        986429
        35.05        978318        984421
         35.1        977063        982548
        35.15        975844        981534
         35.2        974776        981269
        35.25        973842        981788
         35.3        973441        982474
        35.35        974338        983295
         35.4        976300        984037
        35.45        978632        985090
         35.5        981130        984695
        35.55        983656        982812