# p  FACE_DATA 148
#  x  y  z  p
0 -12.2087 -12.941 1.25064e+06
0 -11.4763 -12.7793 1.24068e+06
0 -10.744 -12.6176 1.23905e+06
0 -10.0116 -12.456 1.23229e+06
0 -9.27924 -12.2943 1.22561e+06
0 -8.54688 -12.1326 1.21836e+06
0 -7.81452 -11.9709 1.21092e+06
0 -7.08216 -11.8092 1.20333e+06
0 -6.3498 -11.6475 1.19559e+06
0 -5.61744 -11.4858 1.1875e+06
0 -4.88507 -11.3241 1.17906e+06
0 -4.15271 -11.1624 1.16985e+06
0 -3.42035 -11.0007 1.15967e+06
0 -2.68799 -10.839 1.14865e+06
0 -1.95563 -10.6773 1.13797e+06
0 -1.22327 -10.5156 1.12956e+06
0 -0.490904 -10.3539 1.12187e+06
0 0.241458 -10.1922 1.10835e+06
0 0.973819 -10.0305 1.09041e+06
0 1.70618 -9.86877 1.07193e+06
0 2.43854 -9.70708 1.05485e+06
0 3.1709 -9.54538 1.0394e+06
0 3.90327 -9.38368 1.02474e+06
0 4.63563 -9.22198 1.01194e+06
0 5.36799 -9.06028 1.0003e+06
0 6.10035 -8.89858 988526
0 6.83271 -8.73688 976942
0 7.56507 -8.57519 966021
0 8.29744 -8.41349 955297
0 9.0298 -8.25179 944301
0 9.76216 -8.09009 933265
0 10.4945 -7.92839 923205
0 11.2269 -7.76669 914882
0 11.9592 -7.60499 908333
0 12.6916 -7.4433 903042
0 13.424 -7.2816 898607
0 14.1563 -7.1199 895340
0 14.8887 -6.9582 894641
0 15.6211 -6.7965 896806
0 16.3534 -6.6348 897436
0 17.0366 -6.05725 891611
0 17.6707 -5.06385 912825
0 18.3048 -4.07045 917096
0 18.9388 -3.07705 925366
0 19.5729 -2.08365 938438
0 20.207 -1.09025 956689
0 20.423 -0.135826 977498
0 20.2208 0.779627 991093
0 20.0187 1.69508 998743
0 19.8166 2.61053 999786
0 19.6145 3.52598 997298
0 19.4123 4.44143 995832
0 19.2102 5.35689 996254
0 19.0081 6.27234 996577
0 18.806 7.18779 998532
0 18.6038 8.10324 997550
0 18.4017 9.01869 997586
0 18.1996 9.93415 997583
0 17.9975 10.8496 997604
0 17.7954 11.7651 997662
0 17.5932 12.6805 997762
0 17.3911 13.596 997896
0 16.7933 14.3707 998147
0 15.7999 15.0048 998389
0 14.8065 15.6389 998619
0 13.8131 16.2729 998806
0 12.8197 16.907 998898
0 11.8263 17.5411 998957
0 10.8329 18.1751 999047
0 9.83954 18.8092 999160
0 8.84614 19.4433 999307
0 7.85274 20.0773 999481
0 6.85934 20.7114 999676
0 5.86594 21.3455 1.00004e+06
0 -13.9163 17.4045 1.02161e+06
0 -13.428 17.5123 1.01451e+06
0 -12.9398 17.6201 1.01302e+06
0 -12.4516 17.7279 1.00944e+06
0 -11.9633 17.8357 1.00026e+06
0 -11.4751 17.9435 997098
0 -10.9868 18.0513 999725
0 -10.4986 18.1591 1.00086e+06
0 -10.0104 18.2669 1.00125e+06
0 -9.52211 18.3747 1.00146e+06
0 -9.03387 18.4824 1.0016e+06
0 -8.54563 18.5902 1.00168e+06
0 -8.05739 18.698 1.00175e+06
0 -7.56915 18.8058 1.00181e+06
0 -7.08091 18.9136 1.00184e+06
0 -6.59267 19.0214 1.00182e+06
0 -6.10443 19.1292 1.00177e+06
0 -5.61618 19.237 1.00171e+06
0 -5.12794 19.3448 1.00165e+06
0 -4.6397 19.4526 1.00159e+06
0 -4.15146 19.5604 1.00153e+06
0 -3.66322 19.6682 1.00148e+06
0 -3.17498 19.776 1.00142e+06
0 -2.68674 19.8838 1.00137e+06
0 -2.1985 19.9916 1.00133e+06
0 -1.71026 20.0994 1.00128e+06
0 -1.22201 20.2072 1.00123e+06
0 -0.733773 20.315 1.00116e+06
0 -0.245532 20.4228 1.00109e+06
0 0.242709 20.5306 1.00102e+06
0 0.73095 20.6384 1.00094e+06
0 1.21919 20.7462 1.00086e+06
0 1.70743 20.854 1.00078e+06
0 2.19567 20.9618 1.0007e+06
0 2.68391 21.0696 1.00061e+06
0 3.17216 21.1774 1.00051e+06
0 3.6604 21.2852 1.00041e+06
0 4.14864 21.393 1.00029e+06
0 4.63688 21.5008 1.00016e+06
0 5.12512 21.6086 1.00001e+06
0 -21.4522 5.92646 1.02327e+06
0 -20.8181 6.91986 1.00876e+06
0 -20.1841 7.91326 1.00264e+06
0 -19.55 8.90666 999408
0 -18.9159 9.90006 997578
0 -18.2819 10.8935 999050
0 -17.6478 11.8869 999998
0 -17.0137 12.8803 1.00207e+06
0 -16.3796 13.8737 1.00456e+06
0 -15.7456 14.8671 1.00822e+06
0 -15.1115 15.8605 1.01723e+06
0 -14.4774 16.8539 1.02385e+06
0 -18.6363 -8.75975 1.0943e+06
0 -18.8385 -7.8443 1.06628e+06
0 -19.0406 -6.92885 1.04583e+06
0 -19.2427 -6.01339 1.03248e+06
0 -19.4448 -5.09794 1.02495e+06
0 -19.647 -4.18249 1.02203e+06
0 -19.8491 -3.26704 1.02102e+06
0 -20.0512 -2.35159 1.02065e+06
0 -20.2533 -1.43613 1.02035e+06
0 -20.4554 -0.520682 1.01912e+06
0 -20.6576 0.39477 1.01615e+06
0 -20.8597 1.31022 1.01512e+06
0 -21.0618 2.22567 1.01603e+06
0 -21.2639 3.14113 1.02266e+06
0 -21.4661 4.05658 1.0294e+06
0 -21.6682 4.97203 1.03198e+06
0 -13.0716 -12.7049 1.24826e+06
0 -14.065 -12.0708 1.2117e+06
0 -15.0584 -11.4367 1.1884e+06
0 -16.0518 -10.8027 1.16872e+06
0 -17.0452 -10.1686 1.15073e+06
0 -18.0386 -9.53451 1.1286e+06
