# Region type :  patch inlet
# Faces          : 70
# Area           : 9.8000000000e-03
# Scale factor   : 1.0000000000e+00
# Time           	sum(phi)
0.000120005      	-3.9648692890e-02
0.000264017      	-3.9738724538e-02
0.000436833      	-3.9829682430e-02
0.000644211      	-3.9833383017e-02
0.000893055      	-3.9826705440e-02
0.00119165       	-3.9814168960e-02
0.0015499        	-3.9771626313e-02
0.00197972       	-3.9657972143e-02
0.00249549       	-3.9466326356e-02
0.00311429       	-3.9268829436e-02
0.00385657       	-3.9157757125e-02
0.00474757       	-3.9185320134e-02
0.00581659       	-3.9271394627e-02
0.00709941       	-3.9320148626e-02
0.00863879       	-3.9310604724e-02
0.0104849        	-3.9294671889e-02
0.0126986        	-3.9299985633e-02
0.0153526        	-3.9306229791e-02
0.0185085        	-3.9304507956e-02
0.0221708        	-3.9301249101e-02
0.0263318        	-3.9298977786e-02
0.0309905        	-3.9297133715e-02
0.0360374        	-3.9294903035e-02
0.0410843        	-3.9292799431e-02
0.046158         	-3.9290301091e-02
0.0512316        	-3.9288273422e-02
0.0563052        	-3.9285696839e-02
0.0613789        	-3.9283423783e-02
0.0664525        	-3.9280772736e-02
0.0715261        	-3.9278490654e-02
0.0765997        	-3.9275817780e-02
0.0816734        	-3.9273527395e-02
0.086747         	-3.9270845271e-02
0.0918206        	-3.9268545941e-02
0.0968942        	-3.9265877471e-02
0.101968         	-3.9263565453e-02
0.107042         	-3.9260929753e-02
0.112115         	-3.9258586295e-02
0.117189         	-3.9255978719e-02
0.122262         	-3.9253597046e-02
0.127336         	-3.9251018130e-02
0.13238          	-3.9248616516e-02
0.137425         	-3.9246073775e-02
0.142469         	-3.9243641717e-02
0.147513         	-3.9241112653e-02
0.152558         	-3.9238661271e-02
0.157602         	-3.9236135481e-02
0.162646         	-3.9233667956e-02
0.16769          	-3.9231147350e-02
0.172735         	-3.9228670635e-02
0.177779         	-3.9226150554e-02
0.182823         	-3.9223665151e-02
0.187868         	-3.9221148111e-02
0.192912         	-3.9218656911e-02
0.197956         	-3.9216143364e-02
0.203001         	-3.9213647638e-02
0.208045         	-3.9211136235e-02
0.213089         	-3.9208639979e-02
0.218133         	-3.9206127846e-02
0.223178         	-3.9203630711e-02
0.228222         	-3.9201120237e-02
0.233266         	-3.9198622433e-02
0.238311         	-3.9196114395e-02
0.243355         	-3.9193615725e-02
0.248399         	-3.9191109281e-02
0.253444         	-3.9188610543e-02
0.258488         	-3.9186105444e-02
0.263532         	-3.9183607093e-02
0.268576         	-3.9181103349e-02
0.273621         	-3.9178605528e-02
0.278665         	-3.9176102770e-02
0.283709         	-3.9173605615e-02
0.288754         	-3.9171103775e-02
0.293798         	-3.9168607127e-02
0.298842         	-3.9166106237e-02
0.303887         	-3.9163612565e-02
0.308931         	-3.9161108833e-02
0.313975         	-3.9158612748e-02
0.319019         	-3.9156112908e-02
0.324064         	-3.9153618815e-02
0.329108         	-3.9151123651e-02
0.334152         	-3.9148623131e-02
0.339197         	-3.9146123471e-02
0.344241         	-3.9143629292e-02
0.349285         	-3.9141135666e-02
0.35433          	-3.9138638486e-02
0.359374         	-3.9136137754e-02
0.364418         	-3.9133645698e-02
0.369462         	-3.9131151491e-02
0.374507         	-3.9128657204e-02
0.379551         	-3.9126155753e-02
0.384595         	-3.9123665636e-02
0.38964          	-3.9121168424e-02
0.394684         	-3.9118677916e-02
0.399728         	-3.9116179676e-02
0.404773         	-3.9113689161e-02
0.409817         	-3.9111192056e-02
0.414861         	-3.9108701611e-02
0.419905         	-3.9106204558e-02
0.42495          	-3.9103715016e-02
0.429994         	-3.9101218436e-02
0.435038         	-3.9098729439e-02
0.440083         	-3.9096233655e-02
0.445127         	-3.9093745113e-02
0.450171         	-3.9091249801e-02
0.455216         	-3.9088761607e-02
0.46026          	-3.9086267265e-02
0.465304         	-3.9083778789e-02
0.470348         	-3.9081286091e-02
0.475393         	-3.9078796941e-02
0.480437         	-3.9076306339e-02
0.485481         	-3.9073817424e-02
0.490526         	-3.9071328246e-02
0.49557          	-3.9068839855e-02
0.500614         	-3.9066351396e-02
0.505659         	-3.9063863111e-02
0.510703         	-3.9061375002e-02
0.515747         	-3.9058887641e-02
0.520791         	-3.9056400378e-02
0.525836         	-3.9053913781e-02
0.53088          	-3.9051427540e-02
0.535924         	-3.9048941808e-02
0.540969         	-3.9046456458e-02
0.546013         	-3.9043971591e-02
0.551057         	-3.9041487010e-02
0.556102         	-3.9039002897e-02
0.561146         	-3.9036519093e-02
0.56619          	-3.9034035747e-02
0.571234         	-3.9031552730e-02
0.576279         	-3.9029070147e-02
0.581323         	-3.9026587898e-02
0.586367         	-3.9024106053e-02
0.591412         	-3.9021624565e-02
0.596456         	-3.9019143504e-02
0.6015           	-3.9016662783e-02
0.606545         	-3.9014182495e-02
0.611589         	-3.9011702546e-02
0.616633         	-3.9009223044e-02
0.621677         	-3.9006743891e-02
0.626722         	-3.9004265151e-02
0.631766         	-3.9001786812e-02
0.63681          	-3.8999308889e-02
0.641855         	-3.8996831273e-02
0.646899         	-3.8994354114e-02
0.651943         	-3.8991877333e-02
0.656988         	-3.8989401042e-02
0.662032         	-3.8986925156e-02
0.667076         	-3.8984449650e-02
0.67212          	-3.8981974549e-02
0.677165         	-3.8979499825e-02
0.682209         	-3.8977025594e-02
0.687253         	-3.8974551740e-02
0.692298         	-3.8972078245e-02
0.697342         	-3.8969605244e-02
0.702386         	-3.8967132712e-02
0.707431         	-3.8964660497e-02
0.712475         	-3.8962188986e-02
0.717519         	-3.8959717532e-02
0.722563         	-3.8957247033e-02
0.727608         	-3.8954776411e-02
0.732652         	-3.8952306807e-02
0.737696         	-3.8949837085e-02
0.742741         	-3.8947368268e-02
0.747785         	-3.8944899798e-02
0.752829         	-3.8942431820e-02
0.757874         	-3.8939964182e-02
0.762918         	-3.8937497130e-02
0.767962         	-3.8935030408e-02
0.773006         	-3.8932564277e-02
0.778051         	-3.8930098434e-02
0.783095         	-3.8927633167e-02
0.788139         	-3.8925168172e-02
0.793184         	-3.8922703688e-02
0.798228         	-3.8920239489e-02
0.803272         	-3.8917775692e-02
0.808317         	-3.8915312164e-02
0.813361         	-3.8912849203e-02
0.818405         	-3.8910386221e-02
0.823449         	-3.8907923684e-02
0.828494         	-3.8905461240e-02
0.833538         	-3.8902998841e-02
0.838582         	-3.8900536819e-02
0.843627         	-3.8898074798e-02
0.848671         	-3.8895613036e-02
0.853715         	-3.8893151254e-02
0.85876          	-3.8890689800e-02
0.863804         	-3.8888228406e-02
0.868848         	-3.8885767532e-02
0.873892         	-3.8883307131e-02
0.878937         	-3.8880847861e-02
0.883981         	-3.8878387904e-02
0.889025         	-3.8875928032e-02
0.89407          	-3.8873467865e-02
0.899114         	-3.8871008010e-02
0.904158         	-3.8868548335e-02
0.909203         	-3.8866088447e-02
0.914247         	-3.8863629164e-02
0.919291         	-3.8861169995e-02
0.924335         	-3.8858711271e-02
0.92938          	-3.8856252626e-02
0.934424         	-3.8853794666e-02
0.939468         	-3.8851335791e-02
0.944513         	-3.8848877035e-02
0.949557         	-3.8846418539e-02
0.954601         	-3.8843960869e-02
0.959646         	-3.8841504489e-02
0.96469          	-3.8839047990e-02
0.969734         	-3.8836591909e-02
0.974778         	-3.8834135841e-02
0.979823         	-3.8831679700e-02
0.984867         	-3.8829223602e-02
0.989911         	-3.8826767864e-02
0.994956         	-3.8824312466e-02
1                	-3.8821857771e-02
1.00505          	-3.8819399859e-02
1.0101           	-3.8816942501e-02
1.01515          	-3.8814485407e-02
1.0202           	-3.8812028560e-02
1.02525          	-3.8809572005e-02
1.0303           	-3.8807115736e-02
1.03535          	-3.8804659741e-02
1.0404           	-3.8802204016e-02
1.04545          	-3.8799747299e-02
1.05051          	-3.8797290869e-02
1.05556          	-3.8794836707e-02
1.06061          	-3.8792382976e-02
1.06566          	-3.8789929032e-02
1.07071          	-3.8787475017e-02
1.07576          	-3.8785021377e-02
1.08081          	-3.8782568046e-02
1.08586          	-3.8780115292e-02
1.09091          	-3.8777662772e-02
1.09596          	-3.8775210460e-02
1.10101          	-3.8772758524e-02
1.10606          	-3.8770306782e-02
1.11111          	-3.8767855515e-02
1.11616          	-3.8765404414e-02
1.12121          	-3.8762953776e-02
1.12626          	-3.8760503331e-02
1.13131          	-3.8758053354e-02
1.13636          	-3.8755603557e-02
1.14141          	-3.8753154243e-02
1.14646          	-3.8750705140e-02
1.15152          	-3.8748256493e-02
1.15657          	-3.8745808066e-02
1.16162          	-3.8743360070e-02
1.16667          	-3.8740912339e-02
1.17172          	-3.8738465014e-02
1.17677          	-3.8736017925e-02
1.18182          	-3.8733571247e-02
1.18687          	-3.8731124805e-02
1.19192          	-3.8728678756e-02
1.19697          	-3.8726232956e-02
1.20202          	-3.8723787543e-02
1.20707          	-3.8721342364e-02
1.21212          	-3.8718897595e-02
1.21717          	-3.8716453023e-02
1.22222          	-3.8714008872e-02
1.22727          	-3.8711564896e-02
1.23232          	-3.8709121368e-02
1.23737          	-3.8706678007e-02
1.24242          	-3.8704235110e-02
1.24747          	-3.8701792355e-02
1.25253          	-3.8699350057e-02
1.25758          	-3.8696907922e-02
1.26263          	-3.8694466215e-02
1.26768          	-3.8692024696e-02
1.27273          	-3.8689583640e-02
1.27778          	-3.8687142703e-02
1.28283          	-3.8684702230e-02
1.28788          	-3.8682261920e-02
1.29293          	-3.8679822033e-02
1.29798          	-3.8677382346e-02
1.30303          	-3.8674943089e-02
1.30808          	-3.8672504005e-02
1.31313          	-3.8670065322e-02
1.31818          	-3.8667626852e-02
1.32323          	-3.8665188732e-02
1.32828          	-3.8662750858e-02
1.33333          	-3.8660313374e-02
1.33838          	-3.8657876154e-02
1.34343          	-3.8655439241e-02
1.34848          	-3.8653002602e-02
1.35354          	-3.8650566295e-02
1.35859          	-3.8648130251e-02
1.36364          	-3.8645693777e-02
1.36869          	-3.8643256529e-02
1.37374          	-3.8640823120e-02
1.37879          	-3.8638387203e-02
1.38384          	-3.8635954113e-02
1.38889          	-3.8633518644e-02
1.39394          	-3.8631085973e-02
1.39899          	-3.8628651130e-02
1.40404          	-3.8626219156e-02
1.40909          	-3.8623785005e-02
1.41414          	-3.8621353517e-02
1.41919          	-3.8618919893e-02
1.42424          	-3.8616489047e-02
1.42929          	-3.8614055864e-02
1.43434          	-3.8611625790e-02
1.43939          	-3.8609193390e-02
1.44444          	-3.8606763834e-02
1.44949          	-3.8604331928e-02
1.45455          	-3.8601902979e-02
1.4596           	-3.8599471624e-02
1.46465          	-3.8597043320e-02
1.4697           	-3.8594612623e-02
1.47475          	-3.8592184960e-02
1.4798           	-3.8589754908e-02
1.48485          	-3.8587327709e-02
1.4899           	-3.8584898289e-02
1.49495          	-3.8582471705e-02
1.5              	-3.8580042728e-02
1.50505          	-3.8577616868e-02
1.5101           	-3.8575188686e-02
1.51515          	-3.8572763328e-02
1.5202           	-3.8570335644e-02
1.52525          	-3.8567910881e-02
1.5303           	-3.8565483580e-02
1.53535          	-3.8563059588e-02
1.5404           	-3.8560632817e-02
1.54545          	-3.8558209567e-02
1.55051          	-3.8555783756e-02
1.55556          	-3.8553360862e-02
1.56061          	-3.8550935265e-02
1.56566          	-3.8548513108e-02
1.57071          	-3.8546088569e-02
1.57576          	-3.8543666806e-02
1.58081          	-3.8541242333e-02
1.58586          	-3.8538821459e-02
1.59091          	-3.8536397917e-02
1.59596          	-3.8533977514e-02
1.60101          	-3.8531554581e-02
1.60606          	-3.8529134642e-02
1.61111          	-3.8526712354e-02
1.61616          	-3.8524293018e-02
1.62121          	-3.8521871385e-02
1.62626          	-3.8519452545e-02
1.63131          	-3.8517031662e-02
1.63636          	-3.8514613316e-02
1.64141          	-3.8512193177e-02
1.64646          	-3.8509775235e-02
1.65152          	-3.8507356149e-02
1.65657          	-3.8504938388e-02
1.66162          	-3.8502519942e-02
1.66667          	-3.8500102597e-02
1.67172          	-3.8497685311e-02
1.67677          	-3.8495268471e-02
1.68182          	-3.8492851301e-02
1.68687          	-3.8490435490e-02
1.69192          	-3.8488018734e-02
1.69697          	-3.8485603661e-02
1.70202          	-3.8483187563e-02
1.70707          	-3.8480773047e-02
1.71212          	-3.8478357441e-02
1.71717          	-3.8475943606e-02
1.72222          	-3.8473528635e-02
1.72727          	-3.8471115457e-02
1.73232          	-3.8468701043e-02
1.73737          	-3.8466288500e-02
1.74242          	-3.8463874747e-02
1.74747          	-3.8461462805e-02
1.75253          	-3.8459049711e-02
1.75758          	-3.8456638379e-02
1.76263          	-3.8454225861e-02
1.76768          	-3.8451815148e-02
1.77273          	-3.8449403247e-02
1.77778          	-3.8446993147e-02
1.78283          	-3.8444581910e-02
1.78788          	-3.8442172401e-02
1.79293          	-3.8439761739e-02
1.79798          	-3.8437352867e-02
1.80303          	-3.8434942910e-02
1.80808          	-3.8432534616e-02
1.81313          	-3.8430125286e-02
1.81818          	-3.8427717587e-02
1.82323          	-3.8425308880e-02
1.82828          	-3.8422901754e-02
1.83333          	-3.8420493645e-02
1.83838          	-3.8418087108e-02
1.84343          	-3.8415679656e-02
1.84848          	-3.8413273732e-02
1.85354          	-3.8410866961e-02
1.85859          	-3.8408461592e-02
1.86364          	-3.8406055396e-02
1.86869          	-3.8403650606e-02
1.87374          	-3.8401245079e-02
1.87879          	-3.8398840867e-02
1.88384          	-3.8396435925e-02
1.88889          	-3.8394032312e-02
1.89394          	-3.8391628042e-02
1.89899          	-3.8389224979e-02
1.90404          	-3.8386821360e-02
1.90909          	-3.8384418851e-02
1.91414          	-3.8382015818e-02
1.91919          	-3.8379613904e-02
1.92424          	-3.8377211483e-02
1.92929          	-3.8374810135e-02
1.93434          	-3.8372408386e-02
1.93939          	-3.8370007618e-02
1.94444          	-3.8367606416e-02
1.94949          	-3.8365206224e-02
1.95455          	-3.8362805684e-02
1.9596           	-3.8360406066e-02
1.96465          	-3.8358006121e-02
1.9697           	-3.8355607083e-02
1.97475          	-3.8353207568e-02
1.9798           	-3.8350809198e-02
1.98485          	-3.8348410351e-02
1.9899           	-3.8346012563e-02
1.99495          	-3.8343614329e-02
2                	-3.8341217126e-02
2.00505          	-3.8338819439e-02
2.0101           	-3.8336422858e-02
2.01515          	-3.8334025800e-02
2.0202           	-3.8331629796e-02
2.02525          	-3.8329233229e-02
2.0303           	-3.8326837845e-02
2.03535          	-3.8324442023e-02
2.0404           	-3.8322047214e-02
2.04545          	-3.8319651825e-02
2.05051          	-3.8317257628e-02
2.05556          	-3.8314862861e-02
2.06061          	-3.8312469296e-02
2.06566          	-3.8310075207e-02
2.07071          	-3.8307682197e-02
2.07576          	-3.8305288515e-02
2.08081          	-3.8302896133e-02
2.08586          	-3.8300503221e-02
2.09091          	-3.8298111407e-02
2.09596          	-3.8295718888e-02
2.10101          	-3.8293327718e-02
2.10606          	-3.8290935845e-02
2.11111          	-3.8288545256e-02
2.11616          	-3.8286153963e-02
2.12121          	-3.8283764012e-02
2.12626          	-3.8281373209e-02
2.13131          	-3.8278983870e-02
2.13636          	-3.8276593776e-02
2.14141          	-3.8274205000e-02
2.14646          	-3.8271815517e-02
2.15152          	-3.8269427289e-02
2.15657          	-3.8267038294e-02
2.16162          	-3.8264650698e-02
2.16667          	-3.8262262353e-02
2.17172          	-3.8259875374e-02
2.17677          	-3.8257487599e-02
2.18182          	-3.8255101197e-02
2.18687          	-3.8252713994e-02
2.19192          	-3.8250328187e-02
2.19697          	-3.8247941548e-02
2.20202          	-3.8245556324e-02
2.20707          	-3.8243170336e-02
2.21212          	-3.8240785689e-02
2.21717          	-3.8238400268e-02
2.22222          	-3.8236016202e-02
2.22727          	-3.8233631393e-02
2.23232          	-3.8231247915e-02
2.23737          	-3.8228863724e-02
2.24242          	-3.8226477326e-02
2.24747          	-3.8224098898e-02
2.25253          	-3.8221713383e-02
2.25758          	-3.8219333111e-02
2.26263          	-3.8216949520e-02
2.26768          	-3.8214568546e-02
2.27273          	-3.8212186194e-02
2.27778          	-3.8209805362e-02
2.28283          	-3.8207423867e-02
2.28788          	-3.8205043503e-02
2.29293          	-3.8202662707e-02
2.29798          	-3.8200283144e-02
2.30303          	-3.8197899502e-02
2.30808          	-3.8195522990e-02
2.31313          	-3.8193142871e-02
2.31818          	-3.8190765275e-02
2.32323          	-3.8188385997e-02
2.32828          	-3.8186007992e-02
2.33333          	-3.8183629562e-02
2.33838          	-3.8181252364e-02
2.34343          	-3.8178871118e-02
2.34848          	-3.8176496957e-02
2.35354          	-3.8174119185e-02
2.35859          	-3.8171744250e-02
2.36364          	-3.8169363926e-02
2.36869          	-3.8166991092e-02
2.37374          	-3.8164614401e-02
2.37879          	-3.8162240829e-02
2.38384          	-3.8159861575e-02
2.38889          	-3.8157489695e-02
2.39394          	-3.8155114265e-02
2.39899          	-3.8152741849e-02
2.40404          	-3.8150364094e-02
2.40909          	-3.8147995091e-02
2.41414          	-3.8145618604e-02
2.41919          	-3.8143247827e-02
2.42424          	-3.8140873637e-02
2.42929          	-3.8138501923e-02
2.43434          	-3.8136129201e-02
2.43939          	-3.8133757945e-02
2.44444          	-3.8131382581e-02
2.44949          	-3.8129014288e-02
2.45455          	-3.8126642418e-02
2.4596           	-3.8124273482e-02
2.46465          	-3.8121899279e-02
2.4697           	-3.8119533790e-02
2.47475          	-3.8117160892e-02
2.4798           	-3.8114793529e-02
2.48485          	-3.8112422918e-02
2.4899           	-3.8110055151e-02
2.49495          	-3.8107682487e-02
2.5              	-3.8105317269e-02
2.50505          	-3.8102948211e-02
2.5101           	-3.8100582164e-02
2.51515          	-3.8098210624e-02
2.5202           	-3.8095846400e-02
2.52525          	-3.8093478611e-02
2.5303           	-3.8091113616e-02
2.53535          	-3.8088743399e-02
2.5404           	-3.8086380643e-02
2.54545          	-3.8084013904e-02
2.55051          	-3.8081649853e-02
2.55556          	-3.8079284129e-02
2.56061          	-3.8076919577e-02
2.56566          	-3.8074554733e-02
2.57071          	-3.8072190810e-02
2.57576          	-3.8069823262e-02
2.58081          	-3.8067462447e-02
2.58586          	-3.8065098444e-02
2.59091          	-3.8062736977e-02
2.59596          	-3.8060370293e-02
2.60101          	-3.8058010945e-02
2.60606          	-3.8055647766e-02
2.61111          	-3.8053287238e-02
2.61616          	-3.8050925032e-02
2.62121          	-3.8048564288e-02
2.62626          	-3.8046199547e-02
2.63131          	-3.8043841706e-02
2.63636          	-3.8041480497e-02
2.64141          	-3.8039121620e-02
2.64646          	-3.8036761308e-02
2.65152          	-3.8034402158e-02
2.65657          	-3.8032042537e-02
2.66162          	-3.8029683729e-02
2.66667          	-3.8027321300e-02
2.67172          	-3.8024967232e-02
2.67677          	-3.8022607461e-02
2.68182          	-3.8020251286e-02
2.68687          	-3.8017892726e-02
2.69192          	-3.8015535881e-02
2.69697          	-3.8013178592e-02
2.70202          	-3.8010822512e-02
2.70707          	-3.8008462487e-02
2.71212          	-3.8006109403e-02
2.71717          	-3.8003752806e-02
2.72222          	-3.8001398617e-02
2.72727          	-3.7999042955e-02
2.73232          	-3.7996688309e-02
2.73737          	-3.7994329980e-02
2.74242          	-3.7991980006e-02
2.74747          	-3.7989624298e-02
2.75253          	-3.7987272213e-02
2.75758          	-3.7984917791e-02
2.76263          	-3.7982565197e-02
2.76768          	-3.7980208417e-02
2.77273          	-3.7977860248e-02
2.77778          	-3.7975506205e-02
2.78283          	-3.7973155986e-02
2.78788          	-3.7970803192e-02
2.79293          	-3.7968452339e-02
2.79798          	-3.7966100752e-02
2.80303          	-3.7963750334e-02
2.80808          	-3.7961399534e-02
2.81313          	-3.7959049623e-02
2.81818          	-3.7956699388e-02
2.82323          	-3.7954349926e-02
2.82828          	-3.7952000276e-02
2.83333          	-3.7949651552e-02
2.83838          	-3.7947299145e-02
2.84343          	-3.7944953509e-02
2.84848          	-3.7942604647e-02
2.85354          	-3.7940258313e-02
2.85859          	-3.7937906865e-02
2.86364          	-3.7935562594e-02
2.86869          	-3.7933214702e-02
2.87374          	-3.7930869234e-02
2.87879          	-3.7928522317e-02
2.88384          	-3.7926176524e-02
2.88889          	-3.7923830412e-02
2.89394          	-3.7921485250e-02
2.89899          	-3.7919136341e-02
2.90404          	-3.7916794233e-02
2.90909          	-3.7914448864e-02
2.91414          	-3.7912105646e-02
2.91919          	-3.7909761118e-02
2.92424          	-3.7907417460e-02
2.92929          	-3.7905073748e-02
2.93434          	-3.7902730764e-02
2.93939          	-3.7900384271e-02
2.94444          	-3.7898044577e-02
2.94949          	-3.7895701472e-02
2.95455          	-3.7893360521e-02
2.9596           	-3.7891018336e-02
2.96465          	-3.7888677358e-02
2.9697           	-3.7886332496e-02
2.97475          	-3.7883994628e-02
2.9798           	-3.7881653127e-02
2.98485          	-3.7879314153e-02
2.9899           	-3.7876973529e-02
2.99495          	-3.7874634159e-02
3                	-3.7872294324e-02
3.00505          	-3.7869955334e-02
3.0101           	-3.7867616169e-02
3.01515          	-3.7865277764e-02
3.0202           	-3.7862939203e-02
3.02525          	-3.7860601875e-02
3.0303           	-3.7858260615e-02
3.03535          	-3.7855926130e-02
3.0404           	-3.7853587820e-02
3.04545          	-3.7851252876e-02
3.05051          	-3.7848912354e-02
3.05556          	-3.7846579085e-02
3.06061          	-3.7844241810e-02
3.06566          	-3.7841908238e-02
3.07071          	-3.7839568799e-02
3.07576          	-3.7837236401e-02
3.08081          	-3.7834900461e-02
3.08586          	-3.7832567923e-02
3.09091          	-3.7830229767e-02
3.09596          	-3.7827898938e-02
3.10101          	-3.7825563902e-02
3.10606          	-3.7823232637e-02
3.11111          	-3.7820895485e-02
3.11616          	-3.7818565674e-02
3.12121          	-3.7816231982e-02
3.12626          	-3.7813902102e-02
3.13131          	-3.7811568813e-02
3.13636          	-3.7809237289e-02
3.14141          	-3.7806902405e-02
3.14646          	-3.7804573909e-02
3.15152          	-3.7802243038e-02
3.15657          	-3.7799913270e-02
3.16162          	-3.7797579501e-02
3.16667          	-3.7795252357e-02
3.17172          	-3.7792922515e-02
3.17677          	-3.7790593888e-02
3.18182          	-3.7788264946e-02
3.18687          	-3.7785935741e-02
3.19192          	-3.7783607409e-02
3.19697          	-3.7781278837e-02
3.20202          	-3.7778947547e-02
3.20707          	-3.7776622502e-02
3.21212          	-3.7774295472e-02
3.21717          	-3.7771969687e-02
3.22222          	-3.7769638530e-02
3.22727          	-3.7767315051e-02
3.23232          	-3.7764988698e-02
3.23737          	-3.7762664389e-02
3.24242          	-3.7760334169e-02
3.24747          	-3.7758011398e-02
3.25253          	-3.7755686442e-02
3.25758          	-3.7753362930e-02
3.26263          	-3.7751037900e-02
3.26768          	-3.7748714197e-02
3.27273          	-3.7746385946e-02
3.27778          	-3.7744065075e-02
3.28283          	-3.7741741756e-02
3.28788          	-3.7739419910e-02
3.29293          	-3.7737096595e-02
3.29798          	-3.7734774571e-02
3.30303          	-3.7732451861e-02
3.30808          	-3.7730130343e-02
3.31313          	-3.7727808262e-02
3.31818          	-3.7725487423e-02
3.32323          	-3.7723162029e-02
3.32828          	-3.7720843870e-02
3.33333          	-3.7718523521e-02
3.33838          	-3.7716204508e-02
3.34343          	-3.7713884082e-02
3.34848          	-3.7711564915e-02
3.35354          	-3.7709245043e-02
3.35859          	-3.7706926486e-02
3.36364          	-3.7704607094e-02
3.36869          	-3.7702289129e-02
3.37374          	-3.7699970269e-02
3.37879          	-3.7697652867e-02
3.38384          	-3.7695334668e-02
3.38889          	-3.7693017755e-02
3.39394          	-3.7690700192e-02
3.39899          	-3.7688383768e-02
3.40404          	-3.7686066804e-02
3.40909          	-3.7683750996e-02
3.41414          	-3.7681434534e-02
3.41919          	-3.7679119319e-02
3.42424          	-3.7676803443e-02
3.42929          	-3.7674488808e-02
3.43434          	-3.7672169969e-02
3.43939          	-3.7669859404e-02
3.44444          	-3.7667543372e-02
3.44949          	-3.7665231452e-02
3.45455          	-3.7662916629e-02
3.4596           	-3.7660603930e-02
3.46465          	-3.7658290218e-02
3.4697           	-3.7655977905e-02
3.47475          	-3.7653662156e-02
3.4798           	-3.7651354158e-02
3.48485          	-3.7649039546e-02
3.4899           	-3.7646730021e-02
3.49495          	-3.7644417235e-02
3.5              	-3.7642107082e-02
3.50505          	-3.7639795402e-02
3.5101           	-3.7637485343e-02
3.51515          	-3.7635174632e-02
3.5202           	-3.7632864942e-02
3.52525          	-3.7630554899e-02
3.5303           	-3.7628245980e-02
3.53535          	-3.7625936371e-02
3.5404           	-3.7623627935e-02
3.54545          	-3.7621316147e-02
3.55051          	-3.7619012068e-02
3.55556          	-3.7616701542e-02
3.56061          	-3.7614395659e-02
3.56566          	-3.7612087131e-02
3.57071          	-3.7609780560e-02
3.57576          	-3.7607473204e-02
3.58081          	-3.7605167065e-02
3.58586          	-3.7602860336e-02
3.59091          	-3.7600554752e-02
3.59596          	-3.7598245618e-02
3.60101          	-3.7595944650e-02
3.60606          	-3.7593636814e-02
3.61111          	-3.7591334316e-02
3.61616          	-3.7589028105e-02
3.62121          	-3.7586724642e-02
3.62626          	-3.7584416909e-02
3.63131          	-3.7582117750e-02
3.63636          	-3.7579811735e-02
3.64141          	-3.7577510790e-02
3.64646          	-3.7575206288e-02
3.65152          	-3.7572904647e-02
3.65657          	-3.7570601361e-02
3.66162          	-3.7568300065e-02
3.66667          	-3.7565997488e-02
3.67172          	-3.7563696712e-02
3.67677          	-3.7561394720e-02
3.68182          	-3.7559094319e-02
3.68687          	-3.7556793062e-02
3.69192          	-3.7554493100e-02
3.69697          	-3.7552192527e-02
3.70202          	-3.7549893126e-02
3.70707          	-3.7547593141e-02
3.71212          	-3.7545294327e-02
3.71717          	-3.7542994854e-02
3.72222          	-3.7540696565e-02
3.72727          	-3.7538397698e-02
3.73232          	-3.7536099982e-02
3.73737          	-3.7533801729e-02
3.74242          	-3.7531504565e-02
3.74747          	-3.7529204096e-02
3.75253          	-3.7526911259e-02
3.75758          	-3.7524611972e-02
3.76263          	-3.7522317474e-02
3.76768          	-3.7520020116e-02
3.77273          	-3.7517724972e-02
3.77778          	-3.7515428749e-02
3.78283          	-3.7513133906e-02
3.78788          	-3.7510838423e-02
3.79293          	-3.7508544037e-02
3.79798          	-3.7506249164e-02
3.80303          	-3.7503955302e-02
3.80808          	-3.7501658294e-02
3.81313          	-3.7499368824e-02
3.81818          	-3.7497072915e-02
3.82323          	-3.7494781529e-02
3.82828          	-3.7492487767e-02
3.83333          	-3.7490196021e-02
3.83838          	-3.7487903546e-02
3.84343          	-3.7485611559e-02
3.84848          	-3.7483319264e-02
3.85354          	-3.7481028828e-02
3.85859          	-3.7478737394e-02
3.86364          	-3.7476446469e-02
3.86869          	-3.7474155198e-02
3.87374          	-3.7471866048e-02
3.87879          	-3.7469575698e-02
3.88384          	-3.7467285567e-02
3.88889          	-3.7464995984e-02
3.89394          	-3.7462707148e-02
3.89899          	-3.7460418355e-02
3.90404          	-3.7458130053e-02
3.90909          	-3.7455840744e-02
3.91414          	-3.7453553882e-02
3.91919          	-3.7451265667e-02
3.92424          	-3.7448978156e-02
3.92929          	-3.7446690156e-02
3.93434          	-3.7444404273e-02
3.93939          	-3.7442116954e-02
3.94444          	-3.7439831474e-02
3.94949          	-3.7437545047e-02
3.95455          	-3.7435258477e-02
3.9596           	-3.7432973031e-02
3.96465          	-3.7430687704e-02
3.9697           	-3.7428403057e-02
3.97475          	-3.7426117751e-02
3.9798           	-3.7423833748e-02
3.98485          	-3.7421549229e-02
3.9899           	-3.7419265684e-02
3.99495          	-3.7416981769e-02
4                	-3.7414698941e-02
4.00505          	-3.7412416092e-02
4.0101           	-3.7410133023e-02
4.01515          	-3.7407851137e-02
4.0202           	-3.7405568934e-02
4.02525          	-3.7403286199e-02
4.0303           	-3.7401004862e-02
4.03535          	-3.7398723402e-02
4.0404           	-3.7396442943e-02
4.04545          	-3.7394160867e-02
4.05051          	-3.7391881248e-02
4.05556          	-3.7389601029e-02
4.06061          	-3.7387321706e-02
4.06566          	-3.7385040871e-02
4.07071          	-3.7382762269e-02
4.07576          	-3.7380481701e-02
4.08081          	-3.7378203899e-02
4.08586          	-3.7375924559e-02
4.09091          	-3.7373647263e-02
4.09596          	-3.7371367991e-02
4.10101          	-3.7369091350e-02
4.10606          	-3.7366812689e-02