# p  FACE_DATA 148
#  x  y  z  p
0 -12.7256 -12.4041 1.29507e+06
0 -11.9871 -12.2733 1.28435e+06
0 -11.2486 -12.1425 1.28476e+06
0 -10.5101 -12.0117 1.27711e+06
0 -9.77155 -11.8809 1.26508e+06
0 -9.03304 -11.7501 1.25371e+06
0 -8.29453 -11.6193 1.24091e+06
0 -7.55603 -11.4885 1.22773e+06
0 -6.81752 -11.3577 1.21417e+06
0 -6.07901 -11.2269 1.20008e+06
0 -5.3405 -11.0961 1.18525e+06
0 -4.60199 -10.9654 1.17051e+06
0 -3.86349 -10.8346 1.15853e+06
0 -3.12498 -10.7038 1.14915e+06
0 -2.38647 -10.573 1.13717e+06
0 -1.64796 -10.4422 1.1162e+06
0 -0.909456 -10.3114 1.09348e+06
0 -0.170948 -10.1806 1.07177e+06
0 0.56756 -10.0498 1.05223e+06
0 1.30607 -9.91902 1.03525e+06
0 2.04458 -9.78823 1.02097e+06
0 2.78308 -9.65744 1.00883e+06
0 3.52159 -9.52665 996700
0 4.2601 -9.39586 983310
0 4.99861 -9.26507 968502
0 5.73711 -9.13428 955106
0 6.47562 -9.00349 943615
0 7.21413 -8.87269 931223
0 7.95264 -8.7419 918504
0 8.69115 -8.61111 905930
0 9.42965 -8.48032 894830
0 10.1682 -8.34953 886930
0 10.9067 -8.21874 883824
0 11.6452 -8.08795 883586
0 12.3837 -7.95716 883511
0 13.1222 -7.82637 883534
0 13.8607 -7.69557 888781
0 14.5992 -7.56478 898816
0 15.3377 -7.43399 909493
0 16.0762 -7.3032 915419
0 16.7831 -6.75486 909890
0 17.4583 -5.78897 908837
0 18.1336 -4.82309 910505
0 18.8088 -3.8572 921097
0 19.4841 -2.89131 946946
0 20.1593 -1.92542 985461
0 20.4152 -0.980912 992931
0 20.2517 -0.0577771 992636
0 20.0882 0.865358 985135
0 19.9247 1.78849 984436
0 19.7612 2.71163 981171
0 19.5977 3.63476 981535
0 19.4342 4.5579 982218
0 19.2708 5.48103 983649
0 19.1073 6.40417 983700
0 18.9438 7.3273 983711
0 18.7803 8.25043 983665
0 18.6168 9.17357 983291
0 18.4533 10.0967 982454
0 18.2898 11.0198 982282
0 18.1263 11.943 988575
0 17.9628 12.8661 1.01022e+06
0 17.3982 13.6653 993388
0 16.4323 14.3405 988455
0 15.4664 15.0158 984809
0 14.5005 15.691 982972
0 13.5346 16.3663 982421
0 12.5687 17.0415 982603
0 11.6028 17.7167 983403
0 10.6369 18.392 984477
0 9.67105 19.0672 984980
0 8.70516 19.7425 985094
0 7.73928 20.4177 985208
0 6.77339 21.0929 985644
0 -13.1569 17.9864 989400
0 -12.6646 18.0736 988767
0 -12.1722 18.1608 988703
0 -11.6799 18.248 988682
0 -11.1876 18.3352 988854
0 -10.6952 18.4224 989171
0 -10.2029 18.5096 988309
0 -9.71056 18.5968 986540
0 -9.21822 18.6839 987168
0 -8.72588 18.7711 987366
0 -8.23354 18.8583 987392
0 -7.7412 18.9455 987357
0 -7.24886 19.0327 987317
0 -6.75652 19.1199 987255
0 -6.26419 19.2071 987251
0 -5.77185 19.2943 987243
0 -5.27951 19.3815 987209
0 -4.78717 19.4687 987154
0 -4.29483 19.5559 987083
0 -3.80249 19.6431 986997
0 -3.31016 19.7303 986890
0 -2.81782 19.8175 986784
0 -2.32548 19.9047 986664
0 -1.83314 19.9919 986547
0 -1.3408 20.0791 986445
0 -0.848463 20.1662 986355
0 -0.356124 20.2534 986284
0 0.136214 20.3406 986235
0 0.628553 20.4278 986196
0 1.12089 20.515 986160
0 1.61323 20.6022 986119
0 2.10557 20.6894 986076
0 2.59791 20.7766 986024
0 3.09025 20.8638 985971
0 3.58258 20.951 985933
0 4.07492 21.0382 985889
0 4.56726 21.1254 985845
0 5.0596 21.2126 985730
0 5.55194 21.2998 985702
0 6.04428 21.387 985610
0 -21.1684 6.83509 996880
0 -20.4931 7.80098 995863
0 -19.8179 8.76687 994990
0 -19.1426 9.73275 994263
0 -18.4674 10.6986 993628
0 -17.7922 11.6645 992978
0 -17.1169 12.6304 992228
0 -16.4417 13.5963 991556
0 -15.7664 14.5622 990972
0 -15.0912 15.5281 990544
0 -14.416 16.494 989871
0 -13.7407 17.4599 989573
0 -18.9719 -7.95644 1.14182e+06
0 -19.1354 -7.0333 1.11717e+06
0 -19.2989 -6.11017 1.09594e+06
0 -19.4624 -5.18704 1.08373e+06
0 -19.6259 -4.2639 1.07631e+06
0 -19.7893 -3.34077 1.07064e+06
0 -19.9528 -2.41763 1.06809e+06
0 -20.1163 -1.4945 1.06402e+06
0 -20.2798 -0.571362 1.05983e+06
0 -20.4433 0.351772 1.05674e+06
0 -20.6068 1.27491 1.04815e+06
0 -20.7703 2.19804 1.01802e+06
0 -20.9338 3.12118 1.00163e+06
0 -21.0973 4.04431 999315
0 -21.2607 4.96745 998659
0 -21.4242 5.89058 997916
0 -13.5778 -12.1318 1.29264e+06
0 -14.5437 -11.4566 1.26692e+06
0 -15.5096 -10.7813 1.24391e+06
0 -16.4754 -10.1061 1.22066e+06
0 -17.4413 -9.43087 1.19663e+06
0 -18.4072 -8.75563 1.1706e+06
