# p  FACE_DATA 148
#  x  y  z  p
0 -14.2905 -10.4864 1.12914e+06
0 -13.5409 -10.4612 1.12051e+06
0 -12.7913 -10.436 1.11184e+06
0 -12.0418 -10.4108 1.10228e+06
0 -11.2922 -10.3856 1.09323e+06
0 -10.5426 -10.3604 1.08503e+06
0 -9.79304 -10.3352 1.07742e+06
0 -9.04346 -10.31 1.07046e+06
0 -8.29388 -10.2848 1.06404e+06
0 -7.54431 -10.2596 1.0583e+06
0 -6.79473 -10.2344 1.05321e+06
0 -6.04515 -10.2093 1.04872e+06
0 -5.29558 -10.1841 1.04475e+06
0 -4.546 -10.1589 1.0413e+06
0 -3.79642 -10.1337 1.0384e+06
0 -3.04685 -10.1085 1.036e+06
0 -2.29727 -10.0833 1.0338e+06
0 -1.54769 -10.0581 1.03142e+06
0 -0.798117 -10.0329 1.02902e+06
0 -0.0485406 -10.0077 1.02738e+06
0 0.701036 -9.9825 1.02651e+06
0 1.45061 -9.95731 1.02616e+06
0 2.20019 -9.93212 1.02651e+06
0 2.94977 -9.90692 1.0273e+06
0 3.69934 -9.88173 1.0281e+06
0 4.44892 -9.85653 1.02885e+06
0 5.1985 -9.83134 1.02951e+06
0 5.94807 -9.80614 1.03025e+06
0 6.69765 -9.78095 1.03149e+06
0 7.44723 -9.75576 1.0336e+06
0 8.1968 -9.73056 1.03688e+06
0 8.94638 -9.70537 1.04076e+06
0 9.69596 -9.68017 1.04452e+06
0 10.4455 -9.65498 1.04956e+06
0 11.1951 -9.62978 1.05739e+06
0 11.9447 -9.60459 1.06669e+06
0 12.6943 -9.5794 1.07497e+06
0 13.4438 -9.5542 1.0814e+06
0 14.1934 -9.52901 1.08776e+06
0 14.943 -9.50381 1.10239e+06
0 15.7202 -9.06079 1.09792e+06
0 16.5251 -8.19993 1.08591e+06
0 17.33 -7.33907 1.07672e+06
0 18.1348 -6.47822 1.07225e+06
0 18.9397 -5.61736 1.07669e+06
0 19.7446 -4.7565 1.0846e+06
0 20.1313 -3.85759 1.06818e+06
0 20.0998 -2.92062 1.05107e+06
0 20.0683 -1.98365 1.03495e+06
0 20.0368 -1.04668 1.01914e+06
0 20.0053 -0.109706 1.00697e+06
0 19.9738 0.827265 1.00445e+06
0 19.9423 1.76424 1.00435e+06
0 19.9108 2.70121 1.00421e+06
0 19.8793 3.63818 1.00408e+06
0 19.8478 4.57515 1.00397e+06
0 19.8163 5.51212 1.00388e+06
0 19.7848 6.44909 1.0038e+06
0 19.7533 7.38606 1.00379e+06
0 19.7218 8.32303 1.00382e+06
0 19.6904 9.26 1.00384e+06
0 19.6589 10.197 1.00374e+06
0 19.2127 11.0679 1.00357e+06
0 18.3518 11.8728 1.00344e+06
0 17.491 12.6776 1.00328e+06
0 16.6301 13.4825 1.00313e+06
0 15.7693 14.2874 1.00297e+06
0 14.9084 15.0922 1.00282e+06
0 14.0475 15.8971 1.00272e+06
0 13.1867 16.702 1.00267e+06
0 12.3258 17.5068 1.00264e+06
0 11.465 18.3117 1.00273e+06
0 10.6041 19.1166 1.00292e+06
0 9.74326 19.9215 1.0028e+06
0 -10.426 19.6604 1.00309e+06
0 -9.9263 19.6772 1.00311e+06
0 -9.42659 19.694 1.00307e+06
0 -8.92687 19.7108 1.00298e+06
0 -8.42715 19.7276 1.00287e+06
0 -7.92743 19.7444 1.00276e+06
0 -7.42772 19.7612 1.00267e+06
0 -6.928 19.778 1.00257e+06
0 -6.42828 19.7948 1.00249e+06
0 -5.92856 19.8116 1.00241e+06
0 -5.42884 19.8284 1.00234e+06
0 -4.92913 19.8452 1.00229e+06
0 -4.42941 19.862 1.00224e+06
0 -3.92969 19.8788 1.0022e+06
0 -3.42997 19.8956 1.00216e+06
0 -2.93026 19.9124 1.00213e+06
0 -2.43054 19.9292 1.0021e+06
0 -1.93082 19.946 1.00207e+06
0 -1.4311 19.9628 1.00205e+06
0 -0.931384 19.9796 1.00204e+06
0 -0.431666 19.9964 1.00203e+06
0 0.0680514 20.0132 1.00203e+06
0 0.567769 20.03 1.00204e+06
0 1.06749 20.0468 1.00205e+06
0 1.5672 20.0635 1.00207e+06
0 2.06692 20.0803 1.00208e+06
0 2.56664 20.0971 1.00211e+06
0 3.06636 20.1139 1.00214e+06
0 3.56608 20.1307 1.00217e+06
0 4.06579 20.1475 1.00221e+06
0 4.56551 20.1643 1.00225e+06
0 5.06523 20.1811 1.0023e+06
0 5.56495 20.1979 1.00235e+06
0 6.06467 20.2147 1.00241e+06
0 6.56438 20.2315 1.00247e+06
0 7.0641 20.2483 1.00253e+06
0 7.56382 20.2651 1.00259e+06
0 8.06354 20.2819 1.00265e+06
0 8.56325 20.2987 1.00271e+06
0 9.06297 20.3155 1.00276e+06
0 -19.9319 9.75219 1.00459e+06
0 -19.127 10.613 1.00422e+06
0 -18.3221 11.4739 1.00386e+06
0 -17.5173 12.3348 1.0036e+06
0 -16.7124 13.1956 1.00343e+06
0 -15.9075 14.0565 1.00331e+06
0 -15.1027 14.9173 1.0032e+06
0 -14.2978 15.7782 1.00312e+06
0 -13.4929 16.639 1.00306e+06
0 -12.6881 17.4999 1.00305e+06
0 -11.8832 18.3608 1.00306e+06
0 -11.0783 19.2216 1.00314e+06
0 -19.8462 -5.20129 1.09018e+06
0 -19.8777 -4.26432 1.07565e+06
0 -19.9092 -3.32734 1.05289e+06
0 -19.9407 -2.39037 1.03105e+06
0 -19.9721 -1.4534 1.01481e+06
0 -20.0036 -0.516432 1.00663e+06
0 -20.0351 0.420539 1.00538e+06
0 -20.0666 1.35751 1.00515e+06
0 -20.0981 2.29448 1.00498e+06
0 -20.1296 3.23145 1.00484e+06
0 -20.1611 4.16842 1.00472e+06
0 -20.1926 5.10539 1.00462e+06
0 -20.2241 6.04236 1.00455e+06
0 -20.2556 6.97933 1.00452e+06
0 -20.2871 7.91631 1.00451e+06
0 -20.3186 8.85328 1.00455e+06
0 -15.0957 -10.0966 1.12521e+06
0 -15.9566 -9.29168 1.13224e+06
0 -16.8174 -8.48681 1.11707e+06
0 -17.6783 -7.68195 1.10453e+06
0 -18.5391 -6.87708 1.09883e+06
0 -19.4 -6.07221 1.09426e+06
