# p  FACE_DATA 148
#  x  y  z  p
0 -12.5466 -12.4145 1.25383e+06
0 -11.8094 -12.2764 1.25157e+06
0 -11.0722 -12.1383 1.25232e+06
0 -10.3351 -12.0002 1.25205e+06
0 -9.59789 -11.8621 1.24724e+06
0 -8.86072 -11.724 1.23706e+06
0 -8.12354 -11.5859 1.22443e+06
0 -7.38637 -11.4478 1.21129e+06
0 -6.64919 -11.3096 1.19776e+06
0 -5.91202 -11.1715 1.1841e+06
0 -5.17485 -11.0334 1.17067e+06
0 -4.43767 -10.8953 1.1575e+06
0 -3.7005 -10.7572 1.14402e+06
0 -2.96332 -10.6191 1.13062e+06
0 -2.22615 -10.481 1.11774e+06
0 -1.48898 -10.3429 1.10576e+06
0 -0.751803 -10.2048 1.09338e+06
0 -0.0146286 -10.0667 1.08053e+06
0 0.722545 -9.92854 1.0655e+06
0 1.45972 -9.79043 1.05068e+06
0 2.19689 -9.65232 1.03591e+06
0 2.93407 -9.51421 1.02126e+06
0 3.67124 -9.3761 1.00666e+06
0 4.40842 -9.23799 996896
0 5.14559 -9.09988 988897
0 5.88276 -8.96177 980729
0 6.61994 -8.82366 972961
0 7.35711 -8.68555 968009
0 8.09429 -8.54744 963313
0 8.83146 -8.40933 959186
0 9.56863 -8.27122 957157
0 10.3058 -8.1331 956670
0 11.043 -7.99499 956698
0 11.7802 -7.85688 956969
0 12.5173 -7.71877 957342
0 13.2545 -7.58066 957857
0 13.9917 -7.44255 958885
0 14.7289 -7.30444 961202
0 15.466 -7.16633 960632
0 16.2032 -7.02822 965743
0 16.9046 -6.4729 962682
0 17.5702 -5.50036 981322
0 18.2359 -4.52782 996562
0 18.9015 -3.55528 1.00771e+06
0 19.5671 -2.58274 1.01963e+06
0 20.2327 -1.6102 1.03865e+06
0 20.4792 -0.6632 1.07294e+06
0 20.3066 0.258267 1.09861e+06
0 20.1339 1.17973 1.11151e+06
0 19.9613 2.1012 1.09208e+06
0 19.7887 3.02267 1.04607e+06
0 19.616 3.94414 1.00877e+06
0 19.4434 4.8656 983242
0 19.2708 5.78707 971749
0 19.0981 6.70854 964378
0 18.9255 7.63001 962201
0 18.7528 8.55147 964990
0 18.5802 9.47294 971178
0 18.4076 10.3944 981791
0 18.2349 11.3159 983739
0 18.0623 12.2373 984269
0 17.8896 13.1588 983988
0 17.3171 13.9524 984047
0 16.3445 14.618 990573
0 15.372 15.2836 989997
0 14.3994 15.9492 988562
0 13.4269 16.6149 987775
0 12.4544 17.2805 987685
0 11.4818 17.9461 987937
0 10.5093 18.6117 988226
0 9.53675 19.2774 988267
0 8.56421 19.943 988206
0 7.59168 20.6086 988186
0 6.61914 21.2742 988560
0 -13.2794 17.9701 993944
0 -12.7879 18.0622 993395
0 -12.2965 18.1543 993189
0 -11.805 18.2464 992913
0 -11.3136 18.3384 992601
0 -10.8221 18.4305 992310
0 -10.3307 18.5226 992072
0 -9.83923 18.6147 991900
0 -9.34779 18.7067 991784
0 -8.85634 18.7988 991703
0 -8.36489 18.8909 991658
0 -7.87344 18.983 991647
0 -7.38199 19.075 991601
0 -6.89054 19.1671 991425
0 -6.39909 19.2592 991303
0 -5.90764 19.3513 991210
0 -5.41619 19.4433 991065
0 -4.92474 19.5354 990886
0 -4.43329 19.6275 990680
0 -3.94184 19.7195 990504
0 -3.45039 19.8116 990386
0 -2.95894 19.9037 990310
0 -2.46749 19.9958 990265
0 -1.97605 20.0878 990227
0 -1.4846 20.1799 990164
0 -0.993147 20.272 990050
0 -0.501697 20.3641 989917
0 -0.0102481 20.4561 989771
0 0.481201 20.5482 989620
0 0.97265 20.6403 989474
0 1.4641 20.7324 989340
0 1.95555 20.8244 989213
0 2.447 20.9165 989101
0 2.93845 21.0086 989007
0 3.4299 21.1007 988928
0 3.92135 21.1927 988857
0 4.4128 21.2848 988762
0 4.90424 21.3769 988692
0 5.39569 21.4689 988625
0 5.88714 21.561 988527
0 -21.1798 6.73992 1e+06
0 -20.5142 7.71245 999594
0 -19.8486 8.68499 999329
0 -19.1829 9.65753 999046
0 -18.5173 10.6301 998679
0 -17.8517 11.6026 998154
0 -17.186 12.5751 997533
0 -16.5204 13.5477 996824
0 -15.8548 14.5202 996011
0 -15.1892 15.4928 995165
0 -14.5235 16.4653 994473
0 -13.8579 17.4378 994021
0 -18.8367 -8.0291 1.1202e+06
0 -19.0094 -7.10763 1.10155e+06
0 -19.182 -6.18616 1.07476e+06
0 -19.3546 -5.2647 1.03305e+06
0 -19.5273 -4.34323 1.00912e+06
0 -19.6999 -3.42176 1.00638e+06
0 -19.8726 -2.50029 1.00597e+06
0 -20.0452 -1.57883 1.00539e+06
0 -20.2178 -0.65736 1.00473e+06
0 -20.3905 0.264108 1.00403e+06
0 -20.5631 1.18558 1.00336e+06
0 -20.7357 2.10704 1.00274e+06
0 -20.9084 3.02851 1.00213e+06
0 -21.081 3.94998 1.00152e+06
0 -21.2537 4.87145 1.001e+06
0 -21.4263 5.79291 1.00058e+06
0 -13.4014 -12.1508 1.25327e+06
0 -14.374 -11.4851 1.24201e+06
0 -15.3465 -10.8195 1.22699e+06
0 -16.3191 -10.1539 1.20872e+06
0 -17.2916 -9.48827 1.1842e+06
0 -18.2641 -8.82265 1.14819e+06
