# p  FACE_DATA 148
#  x  y  z  p
0 -15.4021 -8.54596 909970
0 -14.6551 -8.61325 900567
0 -13.9081 -8.68054 894217
0 -13.1611 -8.74784 891203
0 -12.4142 -8.81513 889330
0 -11.6672 -8.88242 888390
0 -10.9202 -8.94971 889305
0 -10.1732 -9.017 891591
0 -9.42627 -9.0843 895273
0 -8.6793 -9.15159 899636
0 -7.93232 -9.21888 906494
0 -7.18535 -9.28617 915082
0 -6.43837 -9.35347 921614
0 -5.6914 -9.42076 930553
0 -4.94442 -9.48805 941686
0 -4.19745 -9.55534 951748
0 -3.45047 -9.62263 961904
0 -2.7035 -9.68993 973420
0 -1.95652 -9.75722 987596
0 -1.20955 -9.82451 1.00417e+06
0 -0.462573 -9.8918 1.01659e+06
0 0.284402 -9.9591 1.02452e+06
0 1.03138 -10.0264 1.02961e+06
0 1.77835 -10.0937 1.03372e+06
0 2.52533 -10.161 1.04591e+06
0 3.2723 -10.2283 1.06068e+06
0 4.01928 -10.2956 1.0781e+06
0 4.76625 -10.3628 1.09933e+06
0 5.51323 -10.4301 1.12173e+06
0 6.2602 -10.4974 1.14151e+06
0 7.00718 -10.5647 1.15805e+06
0 7.75415 -10.632 1.17362e+06
0 8.50113 -10.6993 1.18825e+06
0 9.2481 -10.7666 1.20293e+06
0 9.99508 -10.8339 1.21921e+06
0 10.7421 -10.9012 1.23806e+06
0 11.489 -10.9685 1.25593e+06
0 12.236 -11.0358 1.26719e+06
0 12.983 -11.1031 1.27643e+06
0 13.73 -11.1704 1.29828e+06
0 14.5558 -10.8264 1.29481e+06
0 15.4606 -10.0712 1.26343e+06
0 16.3653 -9.31599 1.24488e+06
0 17.27 -8.56079 1.23266e+06
0 18.1748 -7.80559 1.23197e+06
0 19.0795 -7.05038 1.2353e+06
0 19.5739 -6.20592 1.16502e+06
0 19.6581 -5.2722 1.11158e+06
0 19.7422 -4.33849 1.08888e+06
0 19.8263 -3.40477 1.07868e+06
0 19.9104 -2.47105 1.0696e+06
0 19.9945 -1.53733 1.0648e+06
0 20.0786 -0.603611 1.06335e+06
0 20.1628 0.330108 1.06125e+06
0 20.2469 1.26383 1.0446e+06
0 20.331 2.19755 1.02356e+06
0 20.4151 3.13126 1.0076e+06
0 20.4992 4.06498 1.00546e+06
0 20.5833 4.9987 1.00559e+06
0 20.6674 5.93242 1.00184e+06
0 20.7516 6.86614 996359
0 20.8357 7.79986 994096
0 20.5001 8.71909 992758
0 19.7449 9.62383 991597
0 18.9897 10.5286 990544
0 18.2345 11.4333 990013
0 17.4793 12.3381 989168
0 16.7241 13.2428 988073
0 15.9689 14.1475 987118
0 15.2137 15.0523 986258
0 14.4585 15.957 985686
0 13.7033 16.8618 985754
0 12.9481 17.7665 986045
0 12.1929 18.6712 985618
0 -7.85505 20.8956 980266
0 -7.35706 20.8508 980758
0 -6.85908 20.8059 980778
0 -6.3611 20.7611 980784
0 -5.86311 20.7162 980842
0 -5.36513 20.6713 980907
0 -4.86715 20.6265 980973
0 -4.36916 20.5816 981095
0 -3.87118 20.5368 981234
0 -3.3732 20.4919 981337
0 -2.87521 20.447 981414
0 -2.37723 20.4022 981504
0 -1.87925 20.3573 981592
0 -1.38126 20.3124 981678
0 -0.88328 20.2676 981774
0 -0.385297 20.2227 981869
0 0.112687 20.1779 981938
0 0.61067 20.133 982118
0 1.10865 20.0881 982289
0 1.60664 20.0433 982383
0 2.10462 19.9984 982465
0 2.6026 19.9536 982575
0 3.10059 19.9087 982697
0 3.59857 19.8638 982815
0 4.09655 19.819 982914
0 4.59454 19.7741 983000
0 5.09252 19.7292 983086
0 5.5905 19.6844 983160
0 6.08849 19.6395 983213
0 6.58647 19.5947 983282
0 7.08445 19.5498 983198
0 7.58244 19.5049 983304
0 8.08042 19.4601 983608
0 8.5784 19.4152 983843
0 9.07639 19.3704 984058
0 9.57437 19.3255 984290
0 10.0724 19.2806 984531
0 10.5703 19.2358 984783
0 11.0683 19.1909 985235
0 11.5663 19.146 985564
0 -18.5086 12.2332 977476
0 -17.6038 12.9884 977659
0 -16.6991 13.7436 977829
0 -15.7943 14.4988 978039
0 -14.8896 15.2541 978248
0 -13.9849 16.0093 978429
0 -13.0801 16.7645 978617
0 -12.1754 17.5197 978861
0 -11.2706 18.2749 979149
0 -10.3659 19.0301 979495
0 -9.46115 19.7853 979826
0 -8.55641 20.5405 980404
0 -20.2647 -2.617 993141
0 -20.1806 -1.68329 999577
0 -20.0965 -0.749567 992419
0 -20.0124 0.184152 983008
0 -19.9283 1.11787 976943
0 -19.8441 2.05159 975212
0 -19.76 2.98531 974405
0 -19.6759 3.91903 973591
0 -19.5918 4.85275 960237
0 -19.5077 5.78646 964467
0 -19.4236 6.72018 975584
0 -19.3395 7.6539 976993
0 -19.2553 8.58762 976816
0 -19.1712 9.52134 976808
0 -19.0871 10.4551 977000
0 -19.003 11.3888 977191
0 -16.1532 -8.05994 906748
0 -16.9084 -7.1552 935950
0 -17.6636 -6.25046 937456
0 -18.4188 -5.34572 943277
0 -19.174 -4.44098 954026
0 -19.9292 -3.53623 965719
