# p  FACE_DATA 148
#  x  y  z  p
0 -12.098 -12.929 1.52408e+06
0 -11.3667 -12.7625 1.51577e+06
0 -10.6354 -12.596 1.51444e+06
0 -9.90415 -12.4295 1.50386e+06
0 -9.17286 -12.263 1.48785e+06
0 -8.44157 -12.0966 1.46834e+06
0 -7.71029 -11.9301 1.44868e+06
0 -6.979 -11.7636 1.42849e+06
0 -6.24771 -11.5971 1.40774e+06
0 -5.51642 -11.4306 1.38362e+06
0 -4.78514 -11.2641 1.35802e+06
0 -4.05385 -11.0976 1.33529e+06
0 -3.32256 -10.9311 1.3112e+06
0 -2.59127 -10.7647 1.28707e+06
0 -1.85998 -10.5982 1.25857e+06
0 -1.1287 -10.4317 1.22515e+06
0 -0.39741 -10.2652 1.19214e+06
0 0.333878 -10.0987 1.16045e+06
0 1.06517 -9.93221 1.13017e+06
0 1.79645 -9.76572 1.10695e+06
0 2.52774 -9.59923 1.08609e+06
0 3.25903 -9.43275 1.06079e+06
0 3.99032 -9.26626 1.03417e+06
0 4.7216 -9.09977 1.01252e+06
0 5.45289 -8.93328 991725
0 6.18418 -8.76679 969164
0 6.91547 -8.60031 946374
0 7.64675 -8.43382 925260
0 8.37804 -8.26733 906589
0 9.10933 -8.10084 889849
0 9.84062 -7.93435 874240
0 10.5719 -7.76786 858770
0 11.3032 -7.60138 843771
0 12.0345 -7.43489 831163
0 12.7658 -7.2684 819688
0 13.4971 -7.10191 810714
0 14.2283 -6.93542 807021
0 14.9596 -6.76893 810082
0 15.6909 -6.60245 817322
0 16.4222 -6.43596 816822
0 17.1016 -5.85395 811980
0 17.7292 -4.85642 843663
0 18.3567 -3.85889 873965
0 18.9843 -2.86136 883154
0 19.6118 -1.86384 887502
0 20.2394 -0.866306 894266
0 20.4491 0.0895129 912029
0 20.241 1.00362 929455
0 20.0329 1.91773 945514
0 19.8248 2.83184 957074
0 19.6167 3.74595 970777
0 19.4086 4.66006 976680
0 19.2005 5.57417 976818
0 18.9924 6.48828 977211
0 18.7842 7.40239 976770
0 18.5761 8.3165 974658
0 18.368 9.23061 978309
0 18.1599 10.1447 977528
0 17.9518 11.0588 977481
0 17.7437 11.9729 977830
0 17.5356 12.887 978580
0 17.3275 13.8012 979767
0 16.7247 14.572 981016
0 15.7271 15.1995 982339
0 14.7296 15.8271 983194
0 13.7321 16.4547 983742
0 12.7345 17.0822 984247
0 11.737 17.7098 984959
0 10.7395 18.3373 985273
0 9.74195 18.9649 985605
0 8.74442 19.5924 986032
0 7.74689 20.22 986523
0 6.74937 20.8475 986541
0 5.75184 21.4751 987569
0 -14.0042 17.4047 993841
0 -13.5166 17.5157 993199
0 -13.0291 17.6267 993169
0 -12.5416 17.7377 992968
0 -12.0541 17.8487 992753
0 -11.5665 17.9596 992521
0 -11.079 18.0706 992294
0 -10.5915 18.1816 992084
0 -10.104 18.2926 991921
0 -9.61644 18.4036 991794
0 -9.12892 18.5146 991623
0 -8.64139 18.6256 991400
0 -8.15387 18.7366 991336
0 -7.66634 18.8476 991230
0 -7.17882 18.9586 991128
0 -6.69129 19.0696 991037
0 -6.20377 19.1806 990949
0 -5.71624 19.2915 990862
0 -5.22872 19.4025 990774
0 -4.74119 19.5135 990683
0 -4.25367 19.6245 990591
0 -3.76614 19.7355 990493
0 -3.27862 19.8465 990378
0 -2.79109 19.9575 990260
0 -2.30357 20.0685 990149
0 -1.81604 20.1795 990046
0 -1.32852 20.2905 989943
0 -0.840992 20.4015 989842
0 -0.353467 20.5125 989749
0 0.134058 20.6235 989658
0 0.621583 20.7344 989561
0 1.10911 20.8454 989449
0 1.59663 20.9564 989318
0 2.08416 21.0674 989174
0 2.57168 21.1784 988994
0 3.05921 21.2894 988743
0 3.54673 21.4004 988506
0 4.03426 21.5114 988271
0 4.52178 21.6224 988006
0 5.00931 21.7334 987536
0 -21.4648 5.87761 1.00022e+06
0 -20.8373 6.87513 999472
0 -20.2097 7.87266 998770
0 -19.5822 8.87019 998128
0 -18.9546 9.86772 997573
0 -18.327 10.8652 997111
0 -17.6995 11.8628 996696
0 -17.0719 12.8603 996288
0 -16.4444 13.8578 995841
0 -15.8168 14.8554 995346
0 -15.1893 15.8529 994889
0 -14.5617 16.8504 994003
0 -18.5529 -8.78986 1.30218e+06
0 -18.761 -7.87575 1.26612e+06
0 -18.9691 -6.96164 1.23008e+06
0 -19.1772 -6.04753 1.19684e+06
0 -19.3853 -5.13342 1.16822e+06
0 -19.5934 -4.21931 1.14257e+06
0 -19.8015 -3.3052 1.11987e+06
0 -20.0097 -2.39109 1.09633e+06
0 -20.2178 -1.47698 1.06658e+06
0 -20.4259 -0.562871 1.02202e+06
0 -20.634 0.351239 1.00946e+06
0 -20.8421 1.26535 1.00769e+06
0 -21.0502 2.17946 1.00694e+06
0 -21.2583 3.09357 1.00503e+06
0 -21.4664 4.00768 1.00209e+06
0 -21.6745 4.92179 1.00106e+06
0 -12.9624 -12.6985 1.52175e+06
0 -13.9599 -12.0709 1.45835e+06
0 -14.9575 -11.4434 1.43519e+06
0 -15.955 -10.8158 1.41365e+06
0 -16.9525 -10.1882 1.3909e+06
0 -17.9501 -9.56069 1.35668e+06
