# p  FACE_DATA 148
#  x  y  z  p
0 -16.4743 -6.54892 945929
0 -15.7429 -6.71504 944062
0 -15.0115 -6.88115 941326
0 -14.2802 -7.04726 942408
0 -13.5488 -7.21338 945592
0 -12.8174 -7.37949 949651
0 -12.086 -7.54561 954428
0 -11.3547 -7.71172 961206
0 -10.6233 -7.87783 969540
0 -9.89192 -8.04395 978946
0 -9.16055 -8.21006 989337
0 -8.42917 -8.37617 1.00053e+06
0 -7.6978 -8.54229 1.01231e+06
0 -6.96643 -8.7084 1.02438e+06
0 -6.23505 -8.87452 1.03626e+06
0 -5.50368 -9.04063 1.04825e+06
0 -4.77231 -9.20674 1.0609e+06
0 -4.04094 -9.37286 1.07404e+06
0 -3.30956 -9.53897 1.08745e+06
0 -2.57819 -9.70508 1.10196e+06
0 -1.84682 -9.8712 1.11766e+06
0 -1.11544 -10.0373 1.13401e+06
0 -0.384071 -10.2034 1.15136e+06
0 0.347302 -10.3695 1.167e+06
0 1.07867 -10.5357 1.17958e+06
0 1.81005 -10.7018 1.19215e+06
0 2.54142 -10.8679 1.20462e+06
0 3.27279 -11.034 1.21838e+06
0 4.00417 -11.2001 1.23205e+06
0 4.73554 -11.3662 1.24489e+06
0 5.46691 -11.5323 1.25673e+06
0 6.19828 -11.6984 1.2677e+06
0 6.92966 -11.8646 1.27803e+06
0 7.66103 -12.0307 1.28788e+06
0 8.3924 -12.1968 1.29703e+06
0 9.12378 -12.3629 1.30518e+06
0 9.85515 -12.529 1.31179e+06
0 10.5865 -12.6951 1.31652e+06
0 11.3179 -12.8612 1.31591e+06
0 12.0493 -13.0274 1.32232e+06
0 12.9136 -12.7964 1.31999e+06
0 13.9108 -12.1683 1.27447e+06
0 14.908 -11.5403 1.25253e+06
0 15.9052 -10.9122 1.23185e+06
0 16.9024 -10.2841 1.20903e+06
0 17.8996 -9.65606 1.18077e+06
0 18.502 -8.88491 1.1402e+06
0 18.7097 -7.9707 1.10643e+06
0 18.9173 -7.05648 1.07849e+06
0 19.1249 -6.14227 1.05646e+06
0 19.3326 -5.22805 1.03994e+06
0 19.5402 -4.31383 1.02873e+06
0 19.7479 -3.39962 1.02168e+06
0 19.9555 -2.4854 1.01803e+06
0 20.1632 -1.57119 1.01598e+06
0 20.3708 -0.65697 1.01407e+06
0 20.5784 0.257246 1.01352e+06
0 20.7861 1.17146 1.01326e+06
0 20.9937 2.08568 1.0132e+06
0 21.2014 2.99989 1.01267e+06
0 21.409 3.91411 1.01092e+06
0 21.6167 4.82833 1.01135e+06
0 21.4064 5.78404 1.00486e+06
0 20.7784 6.78125 997683
0 20.1503 7.77845 997103
0 19.5222 8.77566 1.00077e+06
0 18.8942 9.77287 1.00664e+06
0 18.2661 10.7701 1.00439e+06
0 17.638 11.7673 1.00486e+06
0 17.01 12.7645 1.00513e+06
0 16.3819 13.7617 1.00516e+06
0 15.7538 14.7589 1.00494e+06
0 15.1258 15.7561 1.00462e+06
0 14.4977 16.7533 1.00403e+06
0 -5.0758 21.6263 997818
0 -4.58822 21.5155 997745
0 -4.10064 21.4048 997955
0 -3.61305 21.294 1.00045e+06
0 -3.12547 21.1833 1.00066e+06
0 -2.63789 21.0725 1.00079e+06
0 -2.15031 20.9618 1.0009e+06
0 -1.66273 20.8511 1.00105e+06
0 -1.17514 20.7403 1.00126e+06
0 -0.687563 20.6296 1.00137e+06
0 -0.199981 20.5188 1.00141e+06
0 0.287601 20.4081 1.00144e+06
0 0.775183 20.2973 1.00151e+06
0 1.26276 20.1866 1.00158e+06
0 1.75035 20.0759 1.00165e+06
0 2.23793 19.9651 1.00174e+06
0 2.72551 19.8544 1.00182e+06
0 3.21309 19.7436 1.0019e+06
0 3.70067 19.6329 1.00195e+06
0 4.18826 19.5221 1.00198e+06
0 4.67584 19.4114 1.00202e+06
0 5.16342 19.3007 1.00205e+06
0 5.651 19.1899 1.0021e+06
0 6.13858 19.0792 1.00214e+06
0 6.62617 18.9684 1.0022e+06
0 7.11375 18.8577 1.00226e+06
0 7.60133 18.7469 1.00233e+06
0 8.08891 18.6362 1.0024e+06
0 8.57649 18.5255 1.00249e+06
0 9.06408 18.4147 1.00257e+06
0 9.55166 18.304 1.00267e+06
0 10.0392 18.1932 1.00278e+06
0 10.5268 18.0825 1.00289e+06
0 11.0144 17.9717 1.00301e+06
0 11.502 17.861 1.00314e+06
0 11.9896 17.7503 1.00329e+06
0 12.4771 17.6395 1.00345e+06
0 12.9647 17.5288 1.0036e+06
0 13.4523 17.418 1.00373e+06
0 13.9399 17.3073 1.00397e+06
0 -16.7875 14.4589 994422
0 -15.7903 15.0869 999280
0 -14.7931 15.715 999931
0 -13.7959 16.3431 997474
0 -12.7986 16.9711 995990
0 -11.8014 17.5992 996550
0 -10.8042 18.2273 996962
0 -9.80702 18.8553 998294
0 -8.80982 19.4834 998249
0 -7.81261 20.1115 997661
0 -6.8154 20.7395 996733
0 -5.81819 21.3676 998315
0 -20.5045 -0.0255137 993209
0 -20.2969 0.888702 989110
0 -20.0892 1.80292 991209
0 -19.8816 2.71713 991951
0 -19.674 3.63135 992651
0 -19.4663 4.54557 994147
0 -19.2587 5.45978 995261
0 -19.051 6.374 994419
0 -18.8434 7.28821 993141
0 -18.6358 8.20243 993543
0 -18.4281 9.11665 994792
0 -18.2205 10.0309 995325
0 -18.0128 10.9451 995627
0 -17.8052 11.8593 995705
0 -17.5975 12.7735 995962
0 -17.3899 13.6877 997033
0 -17.154 -5.96726 940172
0 -17.7821 -4.97005 977846
0 -18.4101 -3.97285 975534
0 -19.0382 -2.97564 978156
0 -19.6663 -1.97843 990183
0 -20.2943 -0.981225 1.00708e+06
